<?xml version="1.0" encoding="UTF-8"?>

<!-- generated on 2025-12-24 14:56:33 by Eclipse SUMO GUI Version 1.23.1
<sumoConfiguration xmlns:xsi="http://www.w3.org/2001/XMLSchema-instance" xsi:noNamespaceSchemaLocation="http://sumo.dlr.de/xsd/sumoConfiguration.xsd">

    <input>
        <net-file value="C:\Users\Gagana\Desktop\Hazard_modelling\SlowMovingVehicle\osm.net.xml.gz"/>
        <route-files value="C:\Users\Gagana\Desktop\Hazard_modelling\SlowMovingVehicle\osm.bus.trips.xml,C:\Users\Gagana\Desktop\Hazard_modelling\SlowMovingVehicle\osm.motorcycle.trips.xml,C:\Users\Gagana\Desktop\Hazard_modelling\SlowMovingVehicle\osm.passenger.trips.xml,C:\Users\Gagana\Desktop\Hazard_modelling\SlowMovingVehicle\osm.truck.trips.xml"/>
        <additional-files value="C:\Users\Gagana\Desktop\Hazard_modelling\SlowMovingVehicle\osm.poly.xml.gz,C:\Users\Gagana\Desktop\Hazard_modelling\SlowMovingVehicle\output.add.xml"/>
    </input>

    <output>
        <tripinfo-output value="C:\Users\Gagana\Desktop\Hazard_modelling\SlowMovingVehicle\tripinfos.xml"/>
        <statistic-output value="C:\Users\Gagana\Desktop\Hazard_modelling\SlowMovingVehicle\stats.xml"/>
    </output>

    <processing>
        <ignore-route-errors value="true"/>
        <tls.actuated.jam-threshold value="30"/>
    </processing>

    <routing>
        <device.rerouting.adaptation-steps value="18"/>
        <device.rerouting.adaptation-interval value="10"/>
    </routing>

    <report>
        <verbose value="true"/>
        <duration-log.statistics value="true"/>
        <no-step-log value="true"/>
    </report>

    <gui_only>
        <gui-settings-file value="C:\Users\Gagana\Desktop\Hazard_modelling\SlowMovingVehicle\osm.view.xml"/>
    </gui_only>

</sumoConfiguration>
-->

<meandata xmlns:xsi="http://www.w3.org/2001/XMLSchema-instance" xsi:noNamespaceSchemaLocation="http://sumo.dlr.de/xsd/meandata_file.xsd">
    <interval begin="0.00" end="538.00" id="wizard_example">
        <edge id="-1053215199#0" sampledSeconds="0.00" departed="0" arrived="0" entered="0" left="0" laneChangedFrom="0" laneChangedTo="0"/>
        <edge id="-1053215202#0" sampledSeconds="0.00" departed="0" arrived="0" entered="0" left="0" laneChangedFrom="0" laneChangedTo="0"/>
        <edge id="-1053215208#1" sampledSeconds="0.00" departed="0" arrived="0" entered="0" left="0" laneChangedFrom="0" laneChangedTo="0"/>
        <edge id="-1054716334#0" sampledSeconds="114.57" traveltime="5.00" overlapTraveltime="6.31" density="10.01" laneDensity="10.01" occupancy="5.61" waitingTime="32.00" timeLoss="71.71" speed="4.43" speedRelative="0.32" departed="0" arrived="1" entered="19" left="17" laneChangedFrom="0" laneChangedTo="0"/>
        <edge id="-1054716334#1" sampledSeconds="143.29" traveltime="6.99" overlapTraveltime="7.55" density="3.07" laneDensity="3.07" occupancy="1.67" waitingTime="0.00" timeLoss="14.15" speed="12.29" speedRelative="0.88" departed="0" arrived="0" entered="19" left="19" laneChangedFrom="0" laneChangedTo="0"/>
        <edge id="-1054716334#3" sampledSeconds="81.59" traveltime="3.83" overlapTraveltime="4.30" density="3.10" laneDensity="3.10" occupancy="1.61" waitingTime="0.00" timeLoss="5.30" speed="12.76" speedRelative="0.92" departed="0" arrived="0" entered="19" left="19" laneChangedFrom="0" laneChangedTo="0"/>
        <edge id="-1054719899#1" sampledSeconds="6.27" traveltime="1.75" overlapTraveltime="2.21" density="0.92" laneDensity="0.92" occupancy="0.23" waitingTime="0.00" timeLoss="0.74" speed="7.21" speedRelative="0.87" departed="1" arrived="1" entered="2" left="2" laneChangedFrom="0" laneChangedTo="0"/>
        <edge id="-1054719899#3" sampledSeconds="13.02" traveltime="6.07" overlapTraveltime="6.51" density="0.50" laneDensity="0.50" occupancy="0.17" waitingTime="0.00" timeLoss="1.09" speed="7.96" speedRelative="0.96" departed="0" arrived="0" entered="2" left="2" laneChangedFrom="0" laneChangedTo="0"/>
        <edge id="-1054719899#4" sampledSeconds="3.57" traveltime="0.41" overlapTraveltime="1.46" density="2.16" laneDensity="2.16" occupancy="0.44" waitingTime="0.00" timeLoss="1.43" speed="5.14" speedRelative="0.62" departed="1" arrived="1" entered="2" left="2" laneChangedFrom="0" laneChangedTo="0"/>
        <edge id="-1054756408#1" sampledSeconds="18.62" traveltime="8.69" overlapTraveltime="9.29" density="0.68" laneDensity="0.68" occupancy="0.22" waitingTime="0.00" timeLoss="3.15" speed="5.88" speedRelative="0.71" departed="0" arrived="0" entered="2" left="2" laneChangedFrom="0" laneChangedTo="0"/>
        <edge id="-1054776615#0" sampledSeconds="1.56" traveltime="0.99" overlapTraveltime="1.61" density="0.27" laneDensity="0.13" occupancy="0.06" waitingTime="0.00" timeLoss="0.33" speed="11.10" speedRelative="0.80" departed="0" arrived="1" entered="1" left="0" laneChangedFrom="0" laneChangedTo="0"/>
        <edge id="-1054776615#2" sampledSeconds="3.57" traveltime="1.23" overlapTraveltime="1.80" density="0.52" laneDensity="0.26" occupancy="0.11" waitingTime="0.00" timeLoss="0.99" speed="10.52" speedRelative="0.76" departed="0" arrived="1" entered="2" left="1" laneChangedFrom="0" laneChangedTo="0"/>
        <edge id="-1055106802#0" sampledSeconds="6.22" traveltime="0.30" overlapTraveltime="1.25" density="7.37" laneDensity="7.37" occupancy="0.86" waitingTime="0.00" timeLoss="1.16" speed="6.04" speedRelative="0.72" departed="0" arrived="6" entered="7" left="1" laneChangedFrom="0" laneChangedTo="0"/>
        <edge id="-1055107176#0" sampledSeconds="45.37" traveltime="5.66" overlapTraveltime="6.46" density="2.02" laneDensity="2.02" occupancy="1.06" waitingTime="0.00" timeLoss="4.61" speed="7.43" speedRelative="0.89" departed="0" arrived="0" entered="7" left="7" laneChangedFrom="0" laneChangedTo="0"/>
        <edge id="-1055107176#1" sampledSeconds="22.41" traveltime="2.39" overlapTraveltime="3.20" density="2.35" laneDensity="2.35" occupancy="1.05" waitingTime="0.00" timeLoss="2.04" speed="7.53" speedRelative="0.90" departed="0" arrived="0" entered="7" left="7" laneChangedFrom="0" laneChangedTo="0"/>
        <edge id="-1055108439" sampledSeconds="88.38" traveltime="7.24" overlapTraveltime="8.72" density="4.99" laneDensity="4.99" occupancy="2.56" waitingTime="13.00" timeLoss="39.16" speed="4.47" speedRelative="0.54" departed="0" arrived="0" entered="10" left="10" laneChangedFrom="0" laneChangedTo="0"/>
        <edge id="-1055108444" sampledSeconds="31.43" traveltime="2.29" overlapTraveltime="3.17" density="3.40" laneDensity="3.40" occupancy="1.57" waitingTime="0.00" timeLoss="2.33" speed="7.57" speedRelative="0.91" departed="0" arrived="0" entered="10" left="10" laneChangedFrom="0" laneChangedTo="0"/>
        <edge id="-1057635874#0" sampledSeconds="0.00" departed="0" arrived="0" entered="0" left="0" laneChangedFrom="0" laneChangedTo="0"/>
        <edge id="-1057635874#3" sampledSeconds="554.98" traveltime="53.65" overlapTraveltime="62.22" density="18.23" laneDensity="18.23" occupancy="13.16" waitingTime="4.00" timeLoss="262.93" speed="1.04" speedRelative="0.13" departed="1" arrived="0" entered="8" left="9" laneChangedFrom="0" laneChangedTo="0"/>
        <edge id="-1057635874#4" sampledSeconds="56.99" traveltime="1.00" overlapTraveltime="7.52" density="48.37" laneDensity="48.37" occupancy="8.86" waitingTime="0.00" timeLoss="20.12" speed="1.45" speedRelative="0.17" departed="2" arrived="0" entered="6" left="8" laneChangedFrom="0" laneChangedTo="0"/>
        <edge id="-1057635874#5" sampledSeconds="60.44" traveltime="11.25" overlapTraveltime="14.10" density="5.97" laneDensity="5.97" occupancy="3.49" waitingTime="0.00" timeLoss="13.83" speed="1.86" speedRelative="0.22" departed="6" arrived="0" entered="0" left="6" laneChangedFrom="0" laneChangedTo="0"/>
        <edge id="-1083449368#0" sampledSeconds="234.95" traveltime="50.86" overlapTraveltime="59.00" density="20.45" laneDensity="20.45" occupancy="15.81" waitingTime="83.00" timeLoss="166.03" speed="0.53" speedRelative="0.06" departed="0" arrived="0" entered="4" left="4" laneChangedFrom="0" laneChangedTo="0"/>
        <edge id="-1083449378#0" sampledSeconds="0.00" departed="0" arrived="0" entered="0" left="0" laneChangedFrom="0" laneChangedTo="0"/>
        <edge id="-1083449379#0" sampledSeconds="0.00" departed="0" arrived="0" entered="0" left="0" laneChangedFrom="0" laneChangedTo="0"/>
        <edge id="-1083449379#1" sampledSeconds="0.00" departed="0" arrived="0" entered="0" left="0" laneChangedFrom="0" laneChangedTo="0"/>
        <edge id="-1096664770" sampledSeconds="23.36" traveltime="2.52" overlapTraveltime="3.35" density="2.36" laneDensity="2.36" occupancy="1.07" waitingTime="0.00" timeLoss="2.38" speed="7.44" speedRelative="0.89" departed="0" arrived="0" entered="7" left="7" laneChangedFrom="0" laneChangedTo="0"/>
        <edge id="-1096664771#0" sampledSeconds="64.19" traveltime="5.58" overlapTraveltime="6.40" density="2.91" laneDensity="2.91" occupancy="1.58" waitingTime="0.00" timeLoss="5.93" speed="7.41" speedRelative="0.89" departed="0" arrived="0" entered="10" left="10" laneChangedFrom="0" laneChangedTo="0"/>
        <edge id="-1098102388" sampledSeconds="0.00" departed="0" arrived="0" entered="0" left="0" laneChangedFrom="0" laneChangedTo="0"/>
        <edge id="-110378631#1" sampledSeconds="0.00" departed="0" arrived="0" entered="0" left="0" laneChangedFrom="0" laneChangedTo="0"/>
        <edge id="-1107965737#0" sampledSeconds="0.00" departed="0" arrived="0" entered="0" left="0" laneChangedFrom="0" laneChangedTo="0"/>
        <edge id="-1107965737#1" sampledSeconds="0.00" departed="0" arrived="0" entered="0" left="0" laneChangedFrom="0" laneChangedTo="0"/>
        <edge id="-1107965741" sampledSeconds="73.34" traveltime="5.67" overlapTraveltime="10.39" density="14.01" laneDensity="14.01" occupancy="6.18" waitingTime="0.00" timeLoss="43.51" speed="1.71" speedRelative="0.21" departed="0" arrived="0" entered="8" left="8" laneChangedFrom="0" laneChangedTo="0"/>
        <edge id="-1108127004#0" sampledSeconds="52.92" traveltime="2.34" overlapTraveltime="2.80" density="3.43" laneDensity="3.43" occupancy="1.64" waitingTime="0.00" timeLoss="4.83" speed="12.41" speedRelative="0.89" departed="0" arrived="0" entered="19" left="19" laneChangedFrom="0" laneChangedTo="0"/>
        <edge id="-1108127004#1" sampledSeconds="23.14" traveltime="0.70" overlapTraveltime="1.28" density="5.87" laneDensity="5.87" occupancy="1.90" waitingTime="0.00" timeLoss="4.81" speed="10.85" speedRelative="0.78" departed="0" arrived="0" entered="19" left="19" laneChangedFrom="0" laneChangedTo="0"/>
        <edge id="-1108127005#0" sampledSeconds="0.00" departed="0" arrived="0" entered="0" left="0" laneChangedFrom="0" laneChangedTo="0"/>
        <edge id="-1108127005#1" sampledSeconds="0.00" departed="0" arrived="0" entered="0" left="0" laneChangedFrom="0" laneChangedTo="0"/>
        <edge id="-1113693220#2" sampledSeconds="39.63" traveltime="4.48" overlapTraveltime="5.59" density="7.37" laneDensity="3.69" occupancy="1.51" waitingTime="13.00" timeLoss="27.83" speed="2.68" speedRelative="0.32" departed="0" arrived="0" entered="7" left="7" laneChangedFrom="0" laneChangedTo="0"/>
        <edge id="-1113693220#3" sampledSeconds="25.64" traveltime="2.61" overlapTraveltime="3.24" density="2.56" laneDensity="1.28" occupancy="0.48" waitingTime="0.00" timeLoss="2.76" speed="7.25" speedRelative="0.87" departed="0" arrived="1" entered="8" left="7" laneChangedFrom="0" laneChangedTo="0"/>
        <edge id="-1113693220#4" sampledSeconds="5.62" traveltime="0.03" overlapTraveltime="0.73" density="52.20" laneDensity="26.10" occupancy="0.50" waitingTime="0.00" timeLoss="0.44" speed="7.53" speedRelative="0.90" departed="0" arrived="1" entered="9" left="8" laneChangedFrom="0" laneChangedTo="0"/>
        <edge id="-1113693221#0" sampledSeconds="0.00" departed="0" arrived="0" entered="0" left="0" laneChangedFrom="0" laneChangedTo="0"/>
        <edge id="-1113693221#1" sampledSeconds="0.00" departed="0" arrived="0" entered="0" left="0" laneChangedFrom="0" laneChangedTo="0"/>
        <edge id="-1113693222#0" sampledSeconds="0.00" departed="0" arrived="0" entered="0" left="0" laneChangedFrom="0" laneChangedTo="0"/>
        <edge id="-1113693222#1" sampledSeconds="0.00" departed="0" arrived="0" entered="0" left="0" laneChangedFrom="0" laneChangedTo="0"/>
        <edge id="-1133775168#0" sampledSeconds="0.00" departed="0" arrived="0" entered="0" left="0" laneChangedFrom="0" laneChangedTo="0"/>
        <edge id="-1133802105#0" sampledSeconds="0.00" departed="0" arrived="0" entered="0" left="0" laneChangedFrom="0" laneChangedTo="0"/>
        <edge id="-1133802105#1" sampledSeconds="0.00" departed="0" arrived="0" entered="0" left="0" laneChangedFrom="0" laneChangedTo="0"/>
        <edge id="-1133802106#0" sampledSeconds="0.00" departed="0" arrived="0" entered="0" left="0" laneChangedFrom="0" laneChangedTo="0"/>
        <edge id="-1133802106#1" sampledSeconds="0.00" departed="0" arrived="0" entered="0" left="0" laneChangedFrom="0" laneChangedTo="0"/>
        <edge id="-113706744" sampledSeconds="0.00" departed="0" arrived="0" entered="0" left="0" laneChangedFrom="0" laneChangedTo="0"/>
        <edge id="-1144042786#0" sampledSeconds="9.49" traveltime="4.24" overlapTraveltime="4.75" density="0.57" laneDensity="0.57" occupancy="0.18" waitingTime="0.00" timeLoss="1.41" speed="7.33" speedRelative="0.88" departed="0" arrived="0" entered="2" left="2" laneChangedFrom="0" laneChangedTo="0"/>
        <edge id="-1144042786#1" sampledSeconds="10.43" traveltime="3.08" overlapTraveltime="3.51" density="0.90" laneDensity="0.90" occupancy="0.24" waitingTime="0.00" timeLoss="1.66" speed="7.01" speedRelative="0.84" departed="0" arrived="1" entered="3" left="2" laneChangedFrom="0" laneChangedTo="0"/>
        <edge id="-1144961567" sampledSeconds="0.80" overlapTraveltime="0.69" density="0.93" laneDensity="0.93" occupancy="0.09" waitingTime="0.00" timeLoss="0.39" speed="5.49" speedRelative="0.66" departed="2" arrived="0" entered="0" left="2" laneChangedFrom="0" laneChangedTo="0"/>
        <edge id="-1144961589#0" sampledSeconds="0.00" departed="0" arrived="0" entered="0" left="0" laneChangedFrom="0" laneChangedTo="0"/>
        <edge id="-1144961589#1" sampledSeconds="0.00" departed="0" arrived="0" entered="0" left="0" laneChangedFrom="0" laneChangedTo="0"/>
        <edge id="-1144961590#0" sampledSeconds="132.33" traveltime="14.05" overlapTraveltime="14.69" density="2.39" laneDensity="2.39" occupancy="1.08" waitingTime="0.00" timeLoss="13.36" speed="7.32" speedRelative="0.88" departed="0" arrived="0" entered="9" left="9" laneChangedFrom="0" laneChangedTo="0"/>
        <edge id="-1144961592#0" sampledSeconds="2.47" traveltime="0.35" overlapTraveltime="1.18" density="3.26" laneDensity="3.26" occupancy="0.31" waitingTime="0.00" timeLoss="0.40" speed="4.05" speedRelative="0.49" departed="0" arrived="0" entered="2" left="2" laneChangedFrom="0" laneChangedTo="0"/>
        <edge id="-1145624489" sampledSeconds="1.87" traveltime="1.86" overlapTraveltime="2.47" density="0.22" laneDensity="0.22" occupancy="0.09" waitingTime="0.00" timeLoss="0.04" speed="8.53" speedRelative="1.02" departed="1" arrived="0" entered="0" left="1" laneChangedFrom="0" laneChangedTo="0"/>
        <edge id="-1145624492" sampledSeconds="2.59" traveltime="1.74" overlapTraveltime="2.59" density="0.50" laneDensity="0.50" occupancy="0.18" waitingTime="0.00" timeLoss="0.91" speed="5.64" speedRelative="0.68" departed="0" arrived="0" entered="1" left="1" laneChangedFrom="0" laneChangedTo="0"/>
        <edge id="-1145624494" sampledSeconds="0.00" departed="0" arrived="0" entered="0" left="0" laneChangedFrom="0" laneChangedTo="0"/>
        <edge id="-1146112327#0" sampledSeconds="0.00" departed="0" arrived="0" entered="0" left="0" laneChangedFrom="0" laneChangedTo="0"/>
        <edge id="-1146112331" sampledSeconds="0.00" departed="0" arrived="0" entered="0" left="0" laneChangedFrom="0" laneChangedTo="0"/>
        <edge id="-1146112332#0" sampledSeconds="0.00" departed="0" arrived="0" entered="0" left="0" laneChangedFrom="0" laneChangedTo="0"/>
        <edge id="-1146112332#1" sampledSeconds="0.00" departed="0" arrived="0" entered="0" left="0" laneChangedFrom="0" laneChangedTo="0"/>
        <edge id="-1146112332#2" sampledSeconds="0.00" departed="0" arrived="0" entered="0" left="0" laneChangedFrom="0" laneChangedTo="0"/>
        <edge id="-1163697798#0" sampledSeconds="29.44" traveltime="2.63" overlapTraveltime="3.33" density="3.01" laneDensity="3.01" occupancy="1.11" waitingTime="0.00" timeLoss="4.54" speed="6.88" speedRelative="0.83" departed="1" arrived="1" entered="8" left="8" laneChangedFrom="0" laneChangedTo="0"/>
        <edge id="-1301799799" sampledSeconds="0.00" departed="0" arrived="0" entered="0" left="0" laneChangedFrom="0" laneChangedTo="0"/>
        <edge id="-1351845463" sampledSeconds="0.00" departed="0" arrived="0" entered="0" left="0" laneChangedFrom="0" laneChangedTo="0"/>
        <edge id="-1390984161" sampledSeconds="0.00" departed="0" arrived="0" entered="0" left="0" laneChangedFrom="0" laneChangedTo="0"/>
        <edge id="-1390984179#0" sampledSeconds="0.00" departed="0" arrived="0" entered="0" left="0" laneChangedFrom="0" laneChangedTo="0"/>
        <edge id="-1390984180#0" sampledSeconds="0.00" departed="0" arrived="0" entered="0" left="0" laneChangedFrom="0" laneChangedTo="0"/>
        <edge id="-1390984180#1" sampledSeconds="0.00" departed="0" arrived="0" entered="0" left="0" laneChangedFrom="0" laneChangedTo="0"/>
        <edge id="-237863516#0" sampledSeconds="0.00" departed="0" arrived="0" entered="0" left="0" laneChangedFrom="0" laneChangedTo="0"/>
        <edge id="-237863516#1" sampledSeconds="0.00" departed="0" arrived="0" entered="0" left="0" laneChangedFrom="0" laneChangedTo="0"/>
        <edge id="-25360202" sampledSeconds="0.00" departed="0" arrived="0" entered="0" left="0" laneChangedFrom="0" laneChangedTo="0"/>
        <edge id="-25360205#0" sampledSeconds="0.00" departed="0" arrived="0" entered="0" left="0" laneChangedFrom="0" laneChangedTo="0"/>
        <edge id="-25360205#1" sampledSeconds="0.00" departed="0" arrived="0" entered="0" left="0" laneChangedFrom="0" laneChangedTo="0"/>
        <edge id="-260638418#0" sampledSeconds="0.00" departed="0" arrived="0" entered="0" left="0" laneChangedFrom="0" laneChangedTo="0"/>
        <edge id="-260638418#1" sampledSeconds="0.00" departed="0" arrived="0" entered="0" left="0" laneChangedFrom="0" laneChangedTo="0"/>
        <edge id="-260638419#0" sampledSeconds="0.00" departed="0" arrived="0" entered="0" left="0" laneChangedFrom="0" laneChangedTo="0"/>
        <edge id="-260638419#1" sampledSeconds="0.00" departed="0" arrived="0" entered="0" left="0" laneChangedFrom="0" laneChangedTo="0"/>
        <edge id="-269740887" sampledSeconds="0.00" departed="0" arrived="0" entered="0" left="0" laneChangedFrom="0" laneChangedTo="0"/>
        <edge id="-269740941" sampledSeconds="0.00" departed="0" arrived="0" entered="0" left="0" laneChangedFrom="0" laneChangedTo="0"/>
        <edge id="-269750539#0" sampledSeconds="0.00" departed="0" arrived="0" entered="0" left="0" laneChangedFrom="0" laneChangedTo="0"/>
        <edge id="-269750539#1" sampledSeconds="0.00" departed="0" arrived="0" entered="0" left="0" laneChangedFrom="0" laneChangedTo="0"/>
        <edge id="-269752445" sampledSeconds="0.00" departed="0" arrived="0" entered="0" left="0" laneChangedFrom="0" laneChangedTo="0"/>
        <edge id="-269752682" sampledSeconds="0.00" departed="0" arrived="0" entered="0" left="0" laneChangedFrom="0" laneChangedTo="0"/>
        <edge id="-270731295#0" sampledSeconds="0.00" departed="0" arrived="0" entered="0" left="0" laneChangedFrom="0" laneChangedTo="0"/>
        <edge id="-270731295#1" sampledSeconds="0.00" departed="0" arrived="0" entered="0" left="0" laneChangedFrom="0" laneChangedTo="0"/>
        <edge id="-270731295#3" sampledSeconds="0.00" departed="0" arrived="0" entered="0" left="0" laneChangedFrom="0" laneChangedTo="0"/>
        <edge id="-270731299" sampledSeconds="0.00" departed="0" arrived="0" entered="0" left="0" laneChangedFrom="0" laneChangedTo="0"/>
        <edge id="-27095671#0" sampledSeconds="230.73" traveltime="30.53" overlapTraveltime="43.17" density="19.40" laneDensity="19.40" occupancy="12.16" waitingTime="0.00" timeLoss="134.70" speed="0.72" speedRelative="0.09" departed="0" arrived="0" entered="7" left="5" laneChangedFrom="0" laneChangedTo="0"/>
        <edge id="-27095671#1" sampledSeconds="446.79" traveltime="46.57" overlapTraveltime="57.43" density="24.04" laneDensity="24.04" occupancy="15.65" waitingTime="0.00" timeLoss="273.03" speed="0.74" speedRelative="0.09" departed="0" arrived="0" entered="10" left="7" laneChangedFrom="0" laneChangedTo="0"/>
        <edge id="-27095671#2" sampledSeconds="572.25" traveltime="42.73" overlapTraveltime="53.61" density="31.41" laneDensity="31.41" occupancy="20.63" waitingTime="38.00" timeLoss="369.48" speed="0.78" speedRelative="0.09" departed="0" arrived="0" entered="11" left="10" laneChangedFrom="0" laneChangedTo="0"/>
        <edge id="-27095671#5" sampledSeconds="6.96" traveltime="3.63" overlapTraveltime="9.28" density="0.60" laneDensity="0.60" occupancy="0.24" waitingTime="0.00" timeLoss="4.36" speed="3.10" speedRelative="0.37" departed="1" arrived="0" entered="0" left="1" laneChangedFrom="0" laneChangedTo="0"/>
        <edge id="-271048865#0" sampledSeconds="0.00" departed="0" arrived="0" entered="0" left="0" laneChangedFrom="0" laneChangedTo="0"/>
        <edge id="-271048865#1" sampledSeconds="0.00" departed="0" arrived="0" entered="0" left="0" laneChangedFrom="0" laneChangedTo="0"/>
        <edge id="-271048866#0" sampledSeconds="0.00" departed="0" arrived="0" entered="0" left="0" laneChangedFrom="0" laneChangedTo="0"/>
        <edge id="-271048866#1" sampledSeconds="0.00" departed="0" arrived="0" entered="0" left="0" laneChangedFrom="0" laneChangedTo="0"/>
        <edge id="-271048868" sampledSeconds="0.00" departed="0" arrived="0" entered="0" left="0" laneChangedFrom="0" laneChangedTo="0"/>
        <edge id="-271048869" sampledSeconds="0.00" departed="0" arrived="0" entered="0" left="0" laneChangedFrom="0" laneChangedTo="0"/>
        <edge id="-271049536" sampledSeconds="0.00" departed="0" arrived="0" entered="0" left="0" laneChangedFrom="0" laneChangedTo="0"/>
        <edge id="-271674186" sampledSeconds="26.24" traveltime="0.91" overlapTraveltime="1.63" density="5.57" laneDensity="5.57" occupancy="2.05" waitingTime="0.00" timeLoss="4.97" speed="9.57" speedRelative="0.69" departed="1" arrived="0" entered="16" left="17" laneChangedFrom="0" laneChangedTo="0"/>
        <edge id="-271674187" sampledSeconds="65.48" traveltime="3.56" overlapTraveltime="4.12" density="3.25" laneDensity="3.25" occupancy="1.72" waitingTime="0.00" timeLoss="14.02" speed="10.67" speedRelative="0.77" departed="1" arrived="0" entered="15" left="16" laneChangedFrom="0" laneChangedTo="0"/>
        <edge id="-271674356#0" sampledSeconds="3.09" traveltime="1.06" overlapTraveltime="1.57" density="0.85" laneDensity="0.85" occupancy="0.19" waitingTime="0.00" timeLoss="0.39" speed="6.72" speedRelative="0.81" departed="0" arrived="0" entered="2" left="2" laneChangedFrom="0" laneChangedTo="0"/>
        <edge id="-271674356#1" sampledSeconds="7.88" traveltime="3.39" overlapTraveltime="3.93" density="0.64" laneDensity="0.64" occupancy="0.19" waitingTime="0.00" timeLoss="1.11" speed="6.72" speedRelative="0.81" departed="0" arrived="0" entered="2" left="2" laneChangedFrom="0" laneChangedTo="0"/>
        <edge id="-272439502#0" sampledSeconds="0.00" departed="0" arrived="0" entered="0" left="0" laneChangedFrom="0" laneChangedTo="0"/>
        <edge id="-272439502#1" sampledSeconds="0.00" departed="0" arrived="0" entered="0" left="0" laneChangedFrom="0" laneChangedTo="0"/>
        <edge id="-272439502#2" sampledSeconds="0.00" departed="0" arrived="0" entered="0" left="0" laneChangedFrom="0" laneChangedTo="0"/>
        <edge id="-272439502#3" sampledSeconds="0.00" departed="0" arrived="0" entered="0" left="0" laneChangedFrom="0" laneChangedTo="0"/>
        <edge id="-272439502#4" sampledSeconds="0.00" departed="0" arrived="0" entered="0" left="0" laneChangedFrom="0" laneChangedTo="0"/>
        <edge id="-272439503#0" sampledSeconds="0.00" departed="0" arrived="0" entered="0" left="0" laneChangedFrom="0" laneChangedTo="0"/>
        <edge id="-272439503#1" sampledSeconds="0.00" departed="0" arrived="0" entered="0" left="0" laneChangedFrom="0" laneChangedTo="0"/>
        <edge id="-273740747" sampledSeconds="0.00" departed="0" arrived="0" entered="0" left="0" laneChangedFrom="0" laneChangedTo="0"/>
        <edge id="-276667445" sampledSeconds="0.00" departed="0" arrived="0" entered="0" left="0" laneChangedFrom="0" laneChangedTo="0"/>
        <edge id="-276907675" sampledSeconds="0.00" departed="0" arrived="0" entered="0" left="0" laneChangedFrom="0" laneChangedTo="0"/>
        <edge id="-276907676" sampledSeconds="0.00" departed="0" arrived="0" entered="0" left="0" laneChangedFrom="0" laneChangedTo="0"/>
        <edge id="-295548364#0" sampledSeconds="0.00" departed="0" arrived="0" entered="0" left="0" laneChangedFrom="0" laneChangedTo="0"/>
        <edge id="-316869462#0" sampledSeconds="0.00" departed="0" arrived="0" entered="0" left="0" laneChangedFrom="0" laneChangedTo="0"/>
        <edge id="-316869462#1" sampledSeconds="0.00" departed="0" arrived="0" entered="0" left="0" laneChangedFrom="0" laneChangedTo="0"/>
        <edge id="-336154175" sampledSeconds="0.00" departed="0" arrived="0" entered="0" left="0" laneChangedFrom="0" laneChangedTo="0"/>
        <edge id="-354174626#2" sampledSeconds="0.00" departed="0" arrived="0" entered="0" left="0" laneChangedFrom="0" laneChangedTo="0"/>
        <edge id="-354174626#3" sampledSeconds="0.00" departed="0" arrived="0" entered="0" left="0" laneChangedFrom="0" laneChangedTo="0"/>
        <edge id="-37452234#0" sampledSeconds="0.00" departed="0" arrived="0" entered="0" left="0" laneChangedFrom="0" laneChangedTo="0"/>
        <edge id="-37452234#1" sampledSeconds="0.00" departed="0" arrived="0" entered="0" left="0" laneChangedFrom="0" laneChangedTo="0"/>
        <edge id="-4615623#0" sampledSeconds="22.74" traveltime="2.95" overlapTraveltime="3.79" density="2.67" laneDensity="1.33" occupancy="0.49" waitingTime="0.00" timeLoss="3.00" speed="5.85" speedRelative="0.70" departed="0" arrived="0" entered="7" left="6" laneChangedFrom="0" laneChangedTo="0"/>
        <edge id="-4615623#2" sampledSeconds="83.31" traveltime="7.81" overlapTraveltime="10.75" density="12.49" laneDensity="6.24" occupancy="2.66" waitingTime="9.00" timeLoss="49.01" speed="1.72" speedRelative="0.21" departed="0" arrived="0" entered="8" left="8" laneChangedFrom="0" laneChangedTo="0"/>
        <edge id="-4615627#1" sampledSeconds="0.00" departed="0" arrived="0" entered="0" left="0" laneChangedFrom="0" laneChangedTo="0"/>
        <edge id="-4616239#0" sampledSeconds="3.69" traveltime="3.34" overlapTraveltime="4.11" density="0.31" laneDensity="0.31" occupancy="0.14" waitingTime="0.00" timeLoss="0.38" speed="6.52" speedRelative="0.78" departed="0" arrived="1" entered="1" left="0" laneChangedFrom="0" laneChangedTo="0"/>
        <edge id="-478377202" sampledSeconds="0.00" departed="0" arrived="0" entered="0" left="0" laneChangedFrom="0" laneChangedTo="0"/>
        <edge id="-478377203" sampledSeconds="0.00" departed="0" arrived="0" entered="0" left="0" laneChangedFrom="0" laneChangedTo="0"/>
        <edge id="-478377204#0" sampledSeconds="0.00" departed="0" arrived="0" entered="0" left="0" laneChangedFrom="0" laneChangedTo="0"/>
        <edge id="-478377204#1" sampledSeconds="0.00" departed="0" arrived="0" entered="0" left="0" laneChangedFrom="0" laneChangedTo="0"/>
        <edge id="-478377204#2" sampledSeconds="0.00" departed="0" arrived="0" entered="0" left="0" laneChangedFrom="0" laneChangedTo="0"/>
        <edge id="-516273671" sampledSeconds="0.00" departed="0" arrived="0" entered="0" left="0" laneChangedFrom="0" laneChangedTo="0"/>
        <edge id="-830606232#0" sampledSeconds="0.00" departed="0" arrived="0" entered="0" left="0" laneChangedFrom="0" laneChangedTo="0"/>
        <edge id="-830606232#1" sampledSeconds="0.00" departed="0" arrived="0" entered="0" left="0" laneChangedFrom="0" laneChangedTo="0"/>
        <edge id="-830606232#2" sampledSeconds="0.00" departed="0" arrived="0" entered="0" left="0" laneChangedFrom="0" laneChangedTo="0"/>
        <edge id="-830606232#3" sampledSeconds="0.00" departed="0" arrived="0" entered="0" left="0" laneChangedFrom="0" laneChangedTo="0"/>
        <edge id="-830606232#4" sampledSeconds="0.00" departed="0" arrived="0" entered="0" left="0" laneChangedFrom="0" laneChangedTo="0"/>
        <edge id="-830606233" sampledSeconds="0.00" departed="0" arrived="0" entered="0" left="0" laneChangedFrom="0" laneChangedTo="0"/>
        <edge id="-839001780#0" sampledSeconds="0.00" departed="0" arrived="0" entered="0" left="0" laneChangedFrom="0" laneChangedTo="0"/>
        <edge id="-839001780#3" sampledSeconds="0.00" departed="0" arrived="0" entered="0" left="0" laneChangedFrom="0" laneChangedTo="0"/>
        <edge id="-903119451#0" sampledSeconds="82.12" traveltime="8.47" overlapTraveltime="9.11" density="2.49" laneDensity="2.49" occupancy="1.08" waitingTime="0.00" timeLoss="8.98" speed="7.26" speedRelative="0.87" departed="0" arrived="0" entered="9" left="9" laneChangedFrom="0" laneChangedTo="0"/>