<?xml version="1.0" encoding="UTF-8"?>

<!-- generated on 2025-12-24 14:56:33 by Eclipse SUMO GUI Version 1.23.1
<sumoConfiguration xmlns:xsi="http://www.w3.org/2001/XMLSchema-instance" xsi:noNamespaceSchemaLocation="http://sumo.dlr.de/xsd/sumoConfiguration.xsd">

    <input>
        <net-file value="C:\Users\Gagana\Desktop\Hazard_modelling\SlowMovingVehicle\osm.net.xml.gz"/>
        <route-files value="C:\Users\Gagana\Desktop\Hazard_modelling\SlowMovingVehicle\osm.bus.trips.xml,C:\Users\Gagana\Desktop\Hazard_modelling\SlowMovingVehicle\osm.motorcycle.trips.xml,C:\Users\Gagana\Desktop\Hazard_modelling\SlowMovingVehicle\osm.passenger.trips.xml,C:\Users\Gagana\Desktop\Hazard_modelling\SlowMovingVehicle\osm.truck.trips.xml"/>
        <additional-files value="C:\Users\Gagana\Desktop\Hazard_modelling\SlowMovingVehicle\osm.poly.xml.gz,C:\Users\Gagana\Desktop\Hazard_modelling\SlowMovingVehicle\output.add.xml"/>
    </input>

    <output>
        <tripinfo-output value="C:\Users\Gagana\Desktop\Hazard_modelling\SlowMovingVehicle\tripinfos.xml"/>
        <statistic-output value="C:\Users\Gagana\Desktop\Hazard_modelling\SlowMovingVehicle\stats.xml"/>
    </output>

    <processing>
        <ignore-route-errors value="true"/>
        <tls.actuated.jam-threshold value="30"/>
    </processing>

    <routing>
        <device.rerouting.adaptation-steps value="18"/>
        <device.rerouting.adaptation-interval value="10"/>
    </routing>

    <report>
        <verbose value="true"/>
        <duration-log.statistics value="true"/>
        <no-step-log value="true"/>
    </report>

    <gui_only>
        <gui-settings-file value="C:\Users\Gagana\Desktop\Hazard_modelling\SlowMovingVehicle\osm.view.xml"/>
    </gui_only>

</sumoConfiguration>
-->

<tripinfos xmlns:xsi="http://www.w3.org/2001/XMLSchema-instance" xsi:noNamespaceSchemaLocation="http://sumo.dlr.de/xsd/tripinfo_file.xsd">
    <tripinfo id="motorcycle0" depart="0.00" departLane="1107965741_0" departPos="2.30" departSpeed="0.00" departDelay="0.00" arrival="65.00" arrivalLane="-1054719899#1_0" arrivalPos="12.70" arrivalSpeed="7.04" duration="65.00" routeLength="512.19" waitingTime="6.00" waitingCount="1" stopTime="0.00" timeLoss="16.88" rerouteNo="1" devices="tripinfo_motorcycle0 routing_motorcycle0" vType="motorcycle_motorcycle" speedFactor="1.06" vaporized=""/>
    <tripinfo id="motorcycle1" depart="56.00" departLane="-1163697798#0_0" departPos="2.30" departSpeed="0.00" departDelay="0.37" arrival="99.00" arrivalLane="-1144042786#1_0" arrivalPos="21.51" arrivalSpeed="4.89" duration="43.00" routeLength="311.29" waitingTime="4.00" waitingCount="1" stopTime="0.00" timeLoss="13.63" rerouteNo="1" devices="tripinfo_motorcycle1 routing_motorcycle1" vType="motorcycle_motorcycle" speedFactor="0.94" vaporized=""/>
    <tripinfo id="veh0" depart="0.00" departLane="1113693220#1_0" departPos="5.10" departSpeed="0.00" departDelay="0.00" arrival="101.00" arrivalLane="-1054719899#4_0" arrivalPos="3.08" arrivalSpeed="8.35" duration="101.00" routeLength="603.68" waitingTime="27.00" waitingCount="1" stopTime="0.00" timeLoss="38.64" rerouteNo="1" devices="tripinfo_veh0 routing_veh0" vType="veh_passenger" speedFactor="1.01" vaporized=""/>
    <tripinfo id="veh1" depart="47.00" departLane="-271674186_0" departPos="5.10" departSpeed="0.00" departDelay="0.64" arrival="112.00" arrivalLane="-1163697798#0_0" arrivalPos="18.17" arrivalSpeed="8.80" duration="65.00" routeLength="560.72" waitingTime="0.00" waitingCount="0" stopTime="0.00" timeLoss="12.30" rerouteNo="1" devices="tripinfo_veh1 routing_veh1" vType="veh_passenger" speedFactor="1.08" vaporized=""/>
    <tripinfo id="truck1" depart="28.00" departLane="271049536_0" departPos="7.20" departSpeed="12.72" departDelay="0.19" arrival="151.00" arrivalLane="1145624490_0" arrivalPos="16.06" arrivalSpeed="7.03" duration="123.00" routeLength="982.75" waitingTime="0.00" waitingCount="0" stopTime="0.00" timeLoss="14.22" rerouteNo="1" devices="tripinfo_truck1 routing_truck1" vType="truck_truck" speedFactor="0.92" vaporized=""/>
    <tripinfo id="veh2" depart="93.00" departLane="303406976_0" departPos="5.10" departSpeed="15.15" departDelay="0.29" arrival="164.00" arrivalLane="-1054776615#2_0" arrivalPos="12.71" arrivalSpeed="12.71" duration="71.00" routeLength="477.37" waitingTime="12.00" waitingCount="1" stopTime="0.00" timeLoss="25.75" rerouteNo="1" devices="tripinfo_veh2 routing_veh2" vType="veh_passenger" speedFactor="1.09" vaporized=""/>
    <tripinfo id="bus1" depart="56.00" departLane="271049536_0" departPos="12.10" departSpeed="13.89" departDelay="0.37" arrival="185.00" arrivalLane="1145624490_0" arrivalPos="16.06" arrivalSpeed="7.85" duration="129.00" routeLength="977.85" waitingTime="12.00" waitingCount="2" stopTime="0.00" timeLoss="29.92" rerouteNo="1" devices="tripinfo_bus1 routing_bus1" vType="bus_bus" speedFactor="1.00" vaporized=""/>
    <tripinfo id="motorcycle2" depart="112.00" departLane="1163697797_0" departPos="2.30" departSpeed="0.00" departDelay="0.74" arrival="219.00" arrivalLane="1144961572_0" arrivalPos="37.48" arrivalSpeed="13.08" duration="107.00" routeLength="768.22" waitingTime="10.00" waitingCount="2" stopTime="0.00" timeLoss="32.28" rerouteNo="1" devices="tripinfo_motorcycle2 routing_motorcycle2" vType="motorcycle_motorcycle" speedFactor="1.05" vaporized=""/>
    <tripinfo id="truck2" depart="57.00" departLane="271049536_0" departPos="7.20" departSpeed="10.58" departDelay="1.37" arrival="234.00" arrivalLane="-1055106802#0_0" arrivalPos="1.57" arrivalSpeed="8.26" duration="177.00" routeLength="1060.05" waitingTime="45.00" waitingCount="3" stopTime="0.00" timeLoss="68.71" rerouteNo="1" devices="tripinfo_truck2 routing_truck2" vType="truck_truck" speedFactor="1.00" vaporized=""/>
    <tripinfo id="veh3" depart="140.00" departLane="-1054719899#4_0" departPos="3.08" departSpeed="0.00" departDelay="0.93" arrival="242.00" arrivalLane="-1113693220#4_0" arrivalPos="0.20" arrivalSpeed="7.61" duration="102.00" routeLength="883.29" waitingTime="0.00" waitingCount="0" stopTime="0.00" timeLoss="11.90" rerouteNo="1" devices="tripinfo_veh3 routing_veh3" vType="veh_passenger" speedFactor="1.03" vaporized=""/>
    <tripinfo id="truck5" depart="140.00" departLane="1055106802#0_0" departPos="1.57" departSpeed="8.09" departDelay="0.93" arrival="251.00" arrivalLane="1054716334#4_0" arrivalPos="28.69" arrivalSpeed="13.40" duration="111.00" routeLength="853.64" waitingTime="5.00" waitingCount="1" stopTime="0.00" timeLoss="15.70" rerouteNo="1" devices="tripinfo_truck5 routing_truck5" vType="truck_truck" speedFactor="0.97" vaporized=""/>
    <tripinfo id="veh4" depart="186.00" departLane="-1145624489_0" departPos="5.10" departSpeed="8.72" departDelay="0.57" arrival="282.00" arrivalLane="1144961567_0" arrivalPos="1.60" arrivalSpeed="7.92" duration="96.00" routeLength="803.29" waitingTime="1.00" waitingCount="1" stopTime="0.00" timeLoss="14.95" rerouteNo="1" devices="tripinfo_veh4 routing_veh4" vType="veh_passenger" speedFactor="1.05" vaporized=""/>
    <tripinfo id="motorcycle3" depart="167.00" departLane="273390877_0" departPos="2.30" departSpeed="0.00" departDelay="0.11" arrival="288.00" arrivalLane="-1055106802#0_0" arrivalPos="1.57" arrivalSpeed="5.01" duration="121.00" routeLength="358.74" waitingTime="53.00" waitingCount="2" stopTime="0.00" timeLoss="71.79" rerouteNo="1" devices="tripinfo_motorcycle3 routing_motorcycle3" vType="motorcycle_motorcycle" speedFactor="0.89" vaporized=""/>
    <tripinfo id="veh5" depart="232.00" departLane="271674186_0" departPos="5.10" departSpeed="0.00" departDelay="0.21" arrival="343.00" arrivalLane="1163706507#4_0" arrivalPos="121.31" arrivalSpeed="14.89" duration="111.00" routeLength="1027.08" waitingTime="5.00" waitingCount="2" stopTime="0.00" timeLoss="30.66" rerouteNo="1" devices="tripinfo_veh5 routing_veh5" vType="veh_passenger" speedFactor="1.12" vaporized=""/>
    <tripinfo id="veh6" depart="279.00" departLane="4615623#1_0" departPos="5.10" departSpeed="0.00" departDelay="0.86" arrival="367.00" arrivalLane="-4616239#0_0" arrivalPos="21.80" arrivalSpeed="6.50" duration="88.00" routeLength="535.30" waitingTime="0.00" waitingCount="0" stopTime="0.00" timeLoss="13.47" rerouteNo="1" devices="tripinfo_veh6 routing_veh6" vType="veh_passenger" speedFactor="0.87" vaporized=""/>
    <tripinfo id="truck10" depart="279.00" departLane="1083449370_0" departPos="7.20" departSpeed="15.13" departDelay="0.86" arrival="379.00" arrivalLane="-1055106802#0_0" arrivalPos="1.57" arrivalSpeed="8.61" duration="100.00" routeLength="672.11" waitingTime="15.00" waitingCount="3" stopTime="0.00" timeLoss="41.18" rerouteNo="1" devices="tripinfo_truck10 routing_truck10" vType="truck_truck" speedFactor="1.09" vaporized=""/>
    <tripinfo id="truck8" depart="224.00" departLane="271049536_0" departPos="7.20" departSpeed="11.12" departDelay="1.49" arrival="380.00" arrivalLane="289837573_2" arrivalPos="84.57" arrivalSpeed="13.73" duration="156.00" routeLength="945.53" waitingTime="34.00" waitingCount="2" stopTime="0.00" timeLoss="73.08" rerouteNo="1" devices="tripinfo_truck8 routing_truck8" vType="truck_truck" speedFactor="1.01" vaporized=""/>
    <tripinfo id="truck4" depart="126.00" departLane="271049536_0" departPos="7.20" departSpeed="0.56" departDelay="14.74" arrival="401.00" arrivalLane="-1055106802#0_0" arrivalPos="1.57" arrivalSpeed="7.69" duration="275.00" routeLength="1060.05" waitingTime="24.00" waitingCount="1" stopTime="0.00" timeLoss="160.21" rerouteNo="1" devices="tripinfo_truck4 routing_truck4" vType="truck_truck" speedFactor="0.94" vaporized=""/>
    <tripinfo id="motorcycle5" depart="279.00" departLane="-1054719899#1_0" departPos="2.30" departSpeed="0.00" departDelay="0.86" arrival="404.00" arrivalLane="-1113693220#3_0" arrivalPos="18.65" arrivalSpeed="4.53" duration="125.00" routeLength="826.25" waitingTime="0.00" waitingCount="0" stopTime="0.00" timeLoss="25.84" rerouteNo="1" devices="tripinfo_motorcycle5 routing_motorcycle5" vType="motorcycle_motorcycle" speedFactor="0.86" vaporized=""/>
    <tripinfo id="bus4" depart="223.00" departLane="271049536_0" departPos="12.10" departSpeed="13.89" departDelay="0.49" arrival="411.00" arrivalLane="-1055106802#0_0" arrivalPos="1.57" arrivalSpeed="7.93" duration="188.00" routeLength="1055.15" waitingTime="38.00" waitingCount="3" stopTime="0.00" timeLoss="79.81" rerouteNo="1" devices="tripinfo_bus4 routing_bus4" vType="bus_bus" speedFactor="1.00" vaporized=""/>
    <tripinfo id="motorcycle7" depart="390.00" departLane="270731299_0" departPos="2.30" departSpeed="0.00" departDelay="0.60" arrival="421.00" arrivalLane="-1054716334#0_0" arrivalPos="21.28" arrivalSpeed="10.37" duration="31.00" routeLength="309.76" waitingTime="0.00" waitingCount="0" stopTime="0.00" timeLoss="5.54" rerouteNo="1" devices="tripinfo_motorcycle7 routing_motorcycle7" vType="motorcycle_motorcycle" speedFactor="0.89" vaporized=""/>
    <tripinfo id="truck0" depart="19.00" departLane="-1057635874#4_0" departPos="2.19" departSpeed="0.00" departDelay="19.00" arrival="425.00" arrivalLane="-1054776615#0_0" arrivalPos="10.82" arrivalSpeed="11.45" duration="406.00" routeLength="832.93" waitingTime="28.00" waitingCount="2" stopTime="0.00" timeLoss="320.74" rerouteNo="1" devices="tripinfo_truck0 routing_truck0" vType="truck_truck" speedFactor="1.02" vaporized=""/>
    <tripinfo id="truck11" depart="306.00" departLane="271049536_0" departPos="7.20" departSpeed="14.96" departDelay="0.04" arrival="445.00" arrivalLane="-1055106802#0_0" arrivalPos="1.57" arrivalSpeed="8.48" duration="139.00" routeLength="1060.05" waitingTime="19.00" waitingCount="1" stopTime="0.00" timeLoss="38.14" rerouteNo="1" devices="tripinfo_truck11 routing_truck11" vType="truck_truck" speedFactor="1.08" vaporized=""/>
    <tripinfo id="motorcycle4" depart="223.00" departLane="-1144961567_0" departPos="1.60" departSpeed="0.00" departDelay="0.49" arrival="486.00" arrivalLane="1055107696_0" arrivalPos="40.90" arrivalSpeed="6.93" duration="263.00" routeLength="857.38" waitingTime="20.00" waitingCount="3" stopTime="0.00" timeLoss="164.17" rerouteNo="1" devices="tripinfo_motorcycle4 routing_motorcycle4" vType="motorcycle_motorcycle" speedFactor="0.94" vaporized=""/>
    <tripinfo id="veh9" depart="418.00" departLane="1083449370_0" departPos="5.10" departSpeed="15.72" departDelay="0.79" arrival="496.00" arrivalLane="4615623#1_0" arrivalPos="12.42" arrivalSpeed="9.42" duration="78.00" routeLength="412.88" waitingTime="16.00" waitingCount="2" stopTime="0.00" timeLoss="48.56" rerouteNo="1" devices="tripinfo_veh9 routing_veh9" vType="veh_passenger" speedFactor="1.13" vaporized=""/>
    <tripinfo id="motorcycle8" depart="446.00" departLane="270731298#0_0" departPos="2.30" departSpeed="0.00" departDelay="0.97" arrival="501.00" arrivalLane="1144961592#0_0" arrivalPos="1.41" arrivalSpeed="2.67" duration="55.00" routeLength="430.76" waitingTime="0.00" waitingCount="0" stopTime="0.00" timeLoss="11.10" rerouteNo="1" devices="tripinfo_motorcycle8 routing_motorcycle8" vType="motorcycle_motorcycle" speedFactor="0.83" vaporized=""/>
    <tripinfo id="veh8" depart="371.00" departLane="271674186_0" departPos="5.10" departSpeed="0.00" departDelay="0.14" arrival="520.00" arrivalLane="1163706507#4_0" arrivalPos="121.31" arrivalSpeed="12.78" duration="149.00" routeLength="1027.08" waitingTime="31.00" waitingCount="2" stopTime="0.00" timeLoss="53.63" rerouteNo="1" devices="tripinfo_veh8 routing_veh8" vType="veh_passenger" speedFactor="0.95" vaporized=""/>
    <tripinfo id="bus3" depart="167.00" departLane="-1057635874#5_0" departPos="12.10" departSpeed="8.33" departDelay="0.11" arrival="523.00" arrivalLane="1163706507#4_1" arrivalPos="121.31" arrivalSpeed="13.36" duration="356.00" routeLength="844.96" waitingTime="34.00" waitingCount="3" stopTime="0.00" timeLoss="281.20" rerouteNo="1" devices="tripinfo_bus3 routing_bus3" vType="bus_bus" speedFactor="1.00" vaporized=""/>
</tripinfos>
