<?xml version="1.0" encoding="UTF-8"?>

<!-- generated on 2025-12-24 21:31:08 by Eclipse SUMO GUI Version 1.23.1
<sumoConfiguration xmlns:xsi="http://www.w3.org/2001/XMLSchema-instance" xsi:noNamespaceSchemaLocation="http://sumo.dlr.de/xsd/sumoConfiguration.xsd">

    <input>
        <net-file value="osm.net.xml.gz"/>
        <route-files value="osm.bus.trips.xml,osm.motorcycle.trips.xml,osm.passenger.trips.xml,osm.truck.trips.xml"/>
        <additional-files value="osm.poly.xml.gz,output.add.xml"/>
    </input>

    <output>
        <tripinfo-output value="tripinfos.xml"/>
        <statistic-output value="stats.xml"/>
    </output>

    <processing>
        <ignore-route-errors value="true"/>
        <tls.actuated.jam-threshold value="30"/>
    </processing>

    <routing>
        <device.rerouting.adaptation-steps value="18"/>
        <device.rerouting.adaptation-interval value="10"/>
    </routing>

    <report>
        <verbose value="true"/>
        <duration-log.statistics value="true"/>
        <no-step-log value="true"/>
    </report>

    <gui_only>
        <gui-settings-file value="osm.view.xml"/>
    </gui_only>

</sumoConfiguration>
-->

<tripinfos xmlns:xsi="http://www.w3.org/2001/XMLSchema-instance" xsi:noNamespaceSchemaLocation="http://sumo.dlr.de/xsd/tripinfo_file.xsd">
    <tripinfo id="motorcycle9" depart="41.00" departLane="4484427#0_0" departPos="2.30" departSpeed="0.00" departDelay="0.46" arrival="64.00" arrivalLane="24968394_1" arrivalPos="43.17" arrivalSpeed="14.97" duration="23.00" routeLength="285.58" waitingTime="0.00" waitingCount="0" stopTime="0.00" timeLoss="3.88" rerouteNo="1" devices="tripinfo_motorcycle9 routing_motorcycle9" vType="motorcycle_motorcycle" speedFactor="1.12" vaporized=""/>
    <tripinfo id="motorcycle11" depart="50.00" departLane="1152689710_0" departPos="0.54" departSpeed="0.00" departDelay="0.45" arrival="66.00" arrivalLane="48303485#0_0" arrivalPos="70.79" arrivalSpeed="7.16" duration="16.00" routeLength="85.71" waitingTime="0.00" waitingCount="0" stopTime="0.00" timeLoss="4.33" rerouteNo="0" devices="tripinfo_motorcycle11 routing_motorcycle11" vType="motorcycle_motorcycle" speedFactor="0.93" vaporized=""/>
    <tripinfo id="motorcycle7" depart="32.00" departLane="566764345_0" departPos="2.30" departSpeed="0.00" departDelay="0.47" arrival="74.00" arrivalLane="110464119#1_0" arrivalPos="45.67" arrivalSpeed="7.19" duration="42.00" routeLength="282.46" waitingTime="0.00" waitingCount="0" stopTime="0.00" timeLoss="8.10" rerouteNo="1" devices="tripinfo_motorcycle7 routing_motorcycle7" vType="motorcycle_motorcycle" speedFactor="1.03" vaporized=""/>
    <tripinfo id="veh8" depart="29.00" departLane="304162878#1_2" departPos="5.10" departSpeed="0.00" departDelay="0.17" arrival="90.00" arrivalLane="-1152689710_0" arrivalPos="0.54" arrivalSpeed="8.97" duration="61.00" routeLength="523.59" waitingTime="6.00" waitingCount="1" stopTime="0.00" timeLoss="19.07" rerouteNo="1" devices="tripinfo_veh8 routing_veh8" vType="veh_passenger" speedFactor="1.14" vaporized=""/>
    <tripinfo id="motorcycle4" depart="19.00" departLane="-4614987#0_0" departPos="2.30" departSpeed="0.00" departDelay="0.98" arrival="98.00" arrivalLane="24914141#8_0" arrivalPos="116.42" arrivalSpeed="11.24" duration="79.00" routeLength="645.66" waitingTime="17.00" waitingCount="2" stopTime="0.00" timeLoss="29.42" rerouteNo="1" devices="tripinfo_motorcycle4 routing_motorcycle4" vType="motorcycle_motorcycle" speedFactor="0.94" vaporized=""/>
    <tripinfo id="motorcycle19" depart="86.00" departLane="-31619761_0" departPos="2.30" departSpeed="5.41" departDelay="0.41" arrival="105.00" arrivalLane="31619761_0" arrivalPos="4.07" arrivalSpeed="6.95" duration="19.00" routeLength="79.97" waitingTime="0.00" waitingCount="0" stopTime="0.00" timeLoss="6.02" rerouteNo="1" devices="tripinfo_motorcycle19 routing_motorcycle19" vType="motorcycle_motorcycle" speedFactor="0.89" vaporized=""/>
    <tripinfo id="motorcycle2" depart="10.00" departLane="-4613306#0_0" departPos="2.30" departSpeed="0.00" departDelay="0.99" arrival="106.00" arrivalLane="187103791_1" arrivalPos="41.95" arrivalSpeed="13.29" duration="96.00" routeLength="789.83" waitingTime="5.00" waitingCount="1" stopTime="0.00" timeLoss="21.56" rerouteNo="1" devices="tripinfo_motorcycle2 routing_motorcycle2" vType="motorcycle_motorcycle" speedFactor="1.05" vaporized=""/>
    <tripinfo id="bus4" depart="24.00" departLane="147646826#0_0" departPos="6.86" departSpeed="13.89" departDelay="0.00" arrival="114.00" arrivalLane="1105526111#1_0" arrivalPos="14.94" arrivalSpeed="5.82" duration="90.00" routeLength="893.30" waitingTime="0.00" waitingCount="0" stopTime="0.00" timeLoss="15.46" rerouteNo="1" devices="tripinfo_bus4 routing_bus4" vType="bus_bus" speedFactor="1.00" vaporized=""/>
    <tripinfo id="veh5" depart="19.00" departLane="728838409_0" departPos="5.10" departSpeed="13.93" departDelay="0.98" arrival="116.00" arrivalLane="1323456348#3_0" arrivalPos="12.09" arrivalSpeed="7.14" duration="97.00" routeLength="1008.25" waitingTime="1.00" waitingCount="1" stopTime="0.00" timeLoss="15.74" rerouteNo="1" devices="tripinfo_veh5 routing_veh5" vType="veh_passenger" speedFactor="1.00" vaporized=""/>
    <tripinfo id="motorcycle16" depart="73.00" departLane="-1144528535#0_0" departPos="0.83" departSpeed="0.00" departDelay="0.92" arrival="118.00" arrivalLane="1040630268#2_0" arrivalPos="19.43" arrivalSpeed="8.34" duration="45.00" routeLength="305.49" waitingTime="0.00" waitingCount="0" stopTime="0.00" timeLoss="8.03" rerouteNo="1" devices="tripinfo_motorcycle16 routing_motorcycle16" vType="motorcycle_motorcycle" speedFactor="1.02" vaporized=""/>
    <tripinfo id="motorcycle3" depart="14.00" departLane="-1083617992#3_0" departPos="2.30" departSpeed="0.00" departDelay="0.49" arrival="127.00" arrivalLane="-29054704#1_0" arrivalPos="0.20" arrivalSpeed="4.89" duration="113.00" routeLength="874.75" waitingTime="16.00" waitingCount="2" stopTime="0.00" timeLoss="35.81" rerouteNo="1" devices="tripinfo_motorcycle3 routing_motorcycle3" vType="motorcycle_motorcycle" speedFactor="0.89" vaporized=""/>
    <tripinfo id="veh3" depart="11.00" departLane="-110464119#1_0" departPos="5.10" departSpeed="0.00" departDelay="0.19" arrival="129.00" arrivalLane="1096709561_1" arrivalPos="56.75" arrivalSpeed="8.29" duration="118.00" routeLength="880.49" waitingTime="22.00" waitingCount="1" stopTime="0.00" timeLoss="49.45" rerouteNo="1" devices="tripinfo_veh3 routing_veh3" vType="veh_passenger" speedFactor="1.02" vaporized=""/>
    <tripinfo id="veh4" depart="15.00" departLane="293931248_2" departPos="5.10" departSpeed="0.00" departDelay="0.58" arrival="133.00" arrivalLane="24968394_1" arrivalPos="43.17" arrivalSpeed="14.66" duration="118.00" routeLength="794.45" waitingTime="34.00" waitingCount="4" stopTime="0.00" timeLoss="64.80" rerouteNo="1" devices="tripinfo_veh4 routing_veh4" vType="veh_passenger" speedFactor="1.10" vaporized=""/>
    <tripinfo id="motorcycle13" depart="59.00" departLane="4613300#1_0" departPos="2.30" departSpeed="0.00" departDelay="0.44" arrival="136.00" arrivalLane="24914141#8_0" arrivalPos="116.42" arrivalSpeed="11.74" duration="77.00" routeLength="517.71" waitingTime="1.00" waitingCount="1" stopTime="0.00" timeLoss="15.77" rerouteNo="1" devices="tripinfo_motorcycle13 routing_motorcycle13" vType="motorcycle_motorcycle" speedFactor="0.94" vaporized=""/>
    <tripinfo id="veh7" depart="26.00" departLane="4790810_1" departPos="5.10" departSpeed="12.49" departDelay="0.77" arrival="136.00" arrivalLane="24968394_0" arrivalPos="43.17" arrivalSpeed="12.40" duration="110.00" routeLength="949.21" waitingTime="15.00" waitingCount="2" stopTime="0.00" timeLoss="33.06" rerouteNo="1" devices="tripinfo_veh7 routing_veh7" vType="veh_passenger" speedFactor="0.90" vaporized=""/>
    <tripinfo id="veh11" depart="40.00" departLane="147646826#0_0" departPos="5.10" departSpeed="10.16" departDelay="0.36" arrival="137.00" arrivalLane="311690284_1" arrivalPos="64.31" arrivalSpeed="14.94" duration="97.00" routeLength="881.54" waitingTime="24.00" waitingCount="2" stopTime="0.00" timeLoss="38.36" rerouteNo="1" devices="tripinfo_veh11 routing_veh11" vType="veh_passenger" speedFactor="1.08" vaporized=""/>
    <tripinfo id="veh18" depart="68.00" departLane="890801131#1_0" departPos="5.10" departSpeed="0.00" departDelay="3.13" arrival="138.00" arrivalLane="24968394_0" arrivalPos="43.17" arrivalSpeed="12.00" duration="70.00" routeLength="588.64" waitingTime="8.00" waitingCount="2" stopTime="0.00" timeLoss="22.52" rerouteNo="1" devices="tripinfo_veh18 routing_veh18" vType="veh_passenger" speedFactor="0.91" vaporized=""/>
    <tripinfo id="veh14" depart="51.00" departLane="4790810_0" departPos="5.10" departSpeed="13.71" departDelay="0.54" arrival="144.00" arrivalLane="1133993572_2" arrivalPos="190.30" arrivalSpeed="12.62" duration="93.00" routeLength="917.53" waitingTime="13.00" waitingCount="1" stopTime="0.00" timeLoss="24.23" rerouteNo="1" devices="tripinfo_veh14 routing_veh14" vType="veh_passenger" speedFactor="0.99" vaporized=""/>
    <tripinfo id="veh1" depart="4.00" departLane="310357283#0_0" departPos="0.20" departSpeed="0.00" departDelay="0.40" arrival="154.00" arrivalLane="311357732#1_2" arrivalPos="8.99" arrivalSpeed="14.83" duration="150.00" routeLength="956.33" waitingTime="65.00" waitingCount="2" stopTime="0.00" timeLoss="85.66" rerouteNo="1" devices="tripinfo_veh1 routing_veh1" vType="veh_passenger" speedFactor="1.08" vaporized=""/>
</tripinfos>
id="motorcycle10" depart="46.00" departLane="310357283#0_1" departPos="0.20" departSpeed="0.00" departDelay="0.95" arrival="156.00" arrivalLane="31619761_0" arrivalPos="4.07" arrivalSpeed="5.89" duration="110.00" routeLength="961.11" waitingTime="7.00" waitingCount="1" stopTime="0.00" timeLoss="24.71" rerouteNo="1" devices="tripinfo_motorcycle10 routing_motorcycle10" vType="motorcycle_motorcycle" speedFactor="0.99" vaporized=""/>
    <tripinfo id="bus3" depart="18.00" departLane="-1107953482_0" departPos="12.10" departSpeed="8.33" departDelay="0.00" arrival="157.00" arrivalLane="-4614987#2_0" arrivalPos="0.20" arrivalSpeed="13.84" duration="139.00" routeLength="1368.05" waitingTime="4.00" waitingCount="1" stopTime="0.00" timeLoss="28.80" rerouteNo="1" devices="tripinfo_bus3 routing_bus3" vType="bus_bus" speedFactor="1.00" vaporized=""/>
    <tripinfo id="truck8" depart="49.00" departLane="-1134090050_1" departPos="7.20" departSpeed="0.00" departDelay="0.95" arrival="157.00" arrivalLane="-1105526111#1_0" arrivalPos="14.94" arrivalSpeed="7.92" duration="108.00" routeLength="893.95" waitingTime="9.00" waitingCount="1" stopTime="0.00" timeLoss="34.77" rerouteNo="1" devices="tripinfo_truck8 routing_truck8" vType="truck_truck" speedFactor="1.00" vaporized=""/>
    <tripinfo id="motorcycle0" depart="0.00" departLane="4615407#3_0" departPos="2.30" departSpeed="0.00" departDelay="0.00" arrival="163.00" arrivalLane="-1152689710_0" arrivalPos="0.54" arrivalSpeed="7.89" duration="163.00" routeLength="1349.79" waitingTime="19.00" waitingCount="2" stopTime="0.00" timeLoss="51.44" rerouteNo="1" devices="tripinfo_motorcycle0 routing_motorcycle0" vType="motorcycle_motorcycle" speedFactor="1.06" vaporized=""/>
    <tripinfo id="veh15" depart="55.00" departLane="188283090#0_3" departPos="5.10" departSpeed="0.00" departDelay="0.94" arrival="169.00" arrivalLane="4615497_0" arrivalPos="13.67" arrivalSpeed="7.58" duration="114.00" routeLength="845.99" waitingTime="13.00" waitingCount="1" stopTime="0.00" timeLoss="37.65" rerouteNo="1" devices="tripinfo_veh15 routing_veh15" vType="veh_passenger" speedFactor="0.94" vaporized=""/>
    <tripinfo id="motorcycle8" depart="37.00" departLane="-1134090050_1" departPos="2.30" departSpeed="0.00" departDelay="0.96" arrival="170.00" arrivalLane="-1152689710_0" arrivalPos="0.54" arrivalSpeed="7.37" duration="133.00" routeLength="920.56" waitingTime="33.00" waitingCount="3" stopTime="0.00" timeLoss="59.61" rerouteNo="1" devices="tripinfo_motorcycle8 routing_motorcycle8" vType="motorcycle_motorcycle" speedFactor="1.05" vaporized=""/>
    <tripinfo id="truck6" depart="37.00" departLane="4615404#0_0" departPos="1.81" departSpeed="0.00" departDelay="0.96" arrival="171.00" arrivalLane="1101404262#1_1" arrivalPos="17.84" arrivalSpeed="12.57" duration="134.00" routeLength="1066.09" waitingTime="10.00" waitingCount="2" stopTime="0.00" timeLoss="41.28" rerouteNo="1" devices="tripinfo_truck6 routing_truck6" vType="truck_truck" speedFactor="0.93" vaporized=""/>
    <tripinfo id="motorcycle12" depart="55.00" departLane="1096709540_1" departPos="2.30" departSpeed="0.00" departDelay="0.94" arrival="172.00" arrivalLane="232070355#0_1" arrivalPos="38.01" arrivalSpeed="9.74" duration="117.00" routeLength="821.46" waitingTime="33.00" waitingCount="3" stopTime="0.00" timeLoss="48.31" rerouteNo="1" devices="tripinfo_motorcycle12 routing_motorcycle12" vType="motorcycle_motorcycle" speedFactor="0.88" vaporized=""/>
    <tripinfo id="truck3" depart="19.00" departLane="-1138696720#0_0" departPos="7.20" departSpeed="0.00" departDelay="0.98" arrival="172.00" arrivalLane="-1152689710_0" arrivalPos="0.54" arrivalSpeed="8.46" duration="153.00" routeLength="1044.23" waitingTime="21.00" waitingCount="3" stopTime="0.00" timeLoss="61.81" rerouteNo="1" devices="tripinfo_truck3 routing_truck3" vType="truck_truck" speedFactor="1.03" vaporized=""/>
    <tripinfo id="bus9" depart="54.00" departLane="4790810_1" departPos="12.10" departSpeed="13.89" departDelay="0.00" arrival="173.00" arrivalLane="1144528537#1_0" arrivalPos="6.12" arrivalSpeed="8.32" duration="119.00" routeLength="1003.84" waitingTime="19.00" waitingCount="2" stopTime="0.00" timeLoss="39.84" rerouteNo="1" devices="tripinfo_bus9 routing_bus9" vType="bus_bus" speedFactor="1.00" vaporized=""/>
    <tripinfo id="veh23" depart="83.00" departLane="147646826#0_2" departPos="5.10" departSpeed="13.06" departDelay="0.11" arrival="174.00" arrivalLane="1055414211#0_0" arrivalPos="4.48" arrivalSpeed="6.93" duration="91.00" routeLength="640.07" waitingTime="10.00" waitingCount="1" stopTime="0.00" timeLoss="24.06" rerouteNo="1" devices="tripinfo_veh23 routing_veh23" vType="veh_passenger" speedFactor="0.94" vaporized=""/>
    <tripinfo id="veh21" depart="77.00" departLane="299397170_1" departPos="5.10" departSpeed="0.00" departDelay="1.32" arrival="177.00" arrivalLane="24968394_0" arrivalPos="43.17" arrivalSpeed="13.10" duration="100.00" routeLength="830.91" waitingTime="28.00" waitingCount="1" stopTime="0.00" timeLoss="40.07" rerouteNo="1" devices="tripinfo_veh21 routing_veh21" vType="veh_passenger" speedFactor="1.02" vaporized=""/>
    <tripinfo id="veh25" depart="91.00" departLane="310357283#0_0" departPos="0.20" departSpeed="0.00" departDelay="0.90" arrival="177.00" arrivalLane="24968394_1" arrivalPos="43.17" arrivalSpeed="12.16" duration="86.00" routeLength="739.86" waitingTime="9.00" waitingCount="2" stopTime="0.00" timeLoss="29.38" rerouteNo="1" devices="tripinfo_veh25 routing_veh25" vType="veh_passenger" speedFactor="0.96" vaporized=""/>
    <tripinfo id="veh16" depart="58.00" departLane="890801131#1_3" departPos="5.10" departSpeed="0.00" departDelay="0.34" arrival="178.00" arrivalLane="24914141#8_0" arrivalPos="116.42" arrivalSpeed="11.67" duration="120.00" routeLength="712.16" waitingTime="36.00" waitingCount="3" stopTime="0.00" timeLoss="61.08" rerouteNo="1" devices="tripinfo_veh16 routing_veh16" vType="veh_passenger" speedFactor="0.88" vaporized=""/>
    <tripinfo id="veh26" depart="102.00" departLane="310357283#0_0" departPos="0.20" departSpeed="2.34" departDelay="8.30" arrival="178.00" arrivalLane="24968394_1" arrivalPos="43.17" arrivalSpeed="12.90" duration="76.00" routeLength="739.86" waitingTime="0.00" waitingCount="0" stopTime="0.00" timeLoss="21.67" rerouteNo="1" devices="tripinfo_veh26 routing_veh26" vType="veh_passenger" speedFactor="0.98" vaporized=""/>
    <tripinfo id="veh9" depart="33.00" departLane="1105526087_1" departPos="5.10" departSpeed="8.53" departDelay="0.56" arrival="182.00" arrivalLane="4790801_0" arrivalPos="19.76" arrivalSpeed="13.87" duration="149.00" routeLength="783.65" waitingTime="58.00" waitingCount="3" stopTime="0.00" timeLoss="81.55" rerouteNo="1" devices="tripinfo_veh9 routing_veh9" vType="veh_passenger" speedFactor="1.02" vaporized=""/>
    <tripinfo id="bus7" depart="42.00" departLane="-24149429#1_0" departPos="10.98" departSpeed="0.00" departDelay="0.00" arrival="183.00" arrivalLane="311690284_0" arrivalPos="64.31" arrivalSpeed="13.77" duration="141.00" routeLength="1267.64" waitingTime="9.00" waitingCount="2" stopTime="0.00" timeLoss="41.05" rerouteNo="1" devices="tripinfo_bus7 routing_bus7" vType="bus_bus" speedFactor="1.00" vaporized=""/>
    <tripinfo id="motorcycle38" depart="172.00" departLane="-1006033769_0" departPos="2.30" departSpeed="0.00" departDelay="0.81" arrival="183.00" arrivalLane="109819340_0" arrivalPos="22.03" arrivalSpeed="8.26" duration="11.00" routeLength="67.27" waitingTime="0.00" waitingCount="0" stopTime="0.00" timeLoss="2.34" rerouteNo="1" devices="tripinfo_motorcycle38 routing_motorcycle38" vType="motorcycle_motorcycle" speedFactor="1.09" vaporized=""/>
    <tripinfo id="bus8" depart="48.00" departLane="728838409_0" departPos="12.10" departSpeed="13.89" departDelay="0.00" arrival="184.00" arrivalLane="24968394_0" arrivalPos="43.17" arrivalSpeed="13.85" duration="136.00" routeLength="895.55" waitingTime="30.00" waitingCount="2" stopTime="0.00" timeLoss="70.70" rerouteNo="1" devices="tripinfo_bus8 routing_bus8" vType="bus_bus" speedFactor="1.00" vaporized=""/>
    <tripinfo id="veh0" depart="0.00" departLane="26652030#1_1" departPos="5.10" departSpeed="0.00" departDelay="0.00" arrival="185.00" arrivalLane="-1101331451_0" arrivalPos="9.90" arrivalSpeed="7.83" duration="185.00" routeLength="1334.67" waitingTime="48.00" waitingCount="3" stopTime="0.00" timeLoss="78.07" rerouteNo="1" devices="tripinfo_veh0 routing_veh0" vType="veh_passenger" speedFactor="1.01" vaporized=""/>
    <tripinfo id="bus13" depart="80.00" departLane="-1055304388_0" departPos="12.10" departSpeed="0.00" departDelay="1.99" arrival="186.00" arrivalLane="311690284_0" arrivalPos="64.31" arrivalSpeed="13.43" duration="106.00" routeLength="999.03" waitingTime="0.00" waitingCount="0" stopTime="0.00" timeLoss="32.92" rerouteNo="1" devices="tripinfo_bus13 routing_bus13" vType="bus_bus" speedFactor="1.00" vaporized=""/>
    <tripinfo id="bus10" depart="61.00" departLane="-4615497_0" departPos="12.10" departSpeed="6.75" departDelay="0.99" arrival="187.00" arrivalLane="-4615404#2_0" arrivalPos="0.47" arrivalSpeed="7.79" duration="126.00" routeLength="1121.11" waitingTime="0.00" waitingCount="0" stopTime="0.00" timeLoss="17.20" rerouteNo="1" devices="tripinfo_bus10 routing_bus10" vType="bus_bus" speedFactor="1.00" vaporized=""/>
    <tripinfo id="bus2" depart="56.00" departLane="310357283#0_0" departPos="0.20" departSpeed="4.64" departDelay="44.00" arrival="190.00" arrivalLane="304162878#1_0" arrivalPos="34.71" arrivalSpeed="13.31" duration="134.00" routeLength="1253.98" waitingTime="17.00" waitingCount="2" stopTime="0.00" timeLoss="42.53" rerouteNo="1" devices="tripinfo_bus2 routing_bus2" vType="bus_bus" speedFactor="1.00" vaporized=""/>
    <tripinfo id="motorcycle18" depart="82.00" departLane="147646826#0_0" departPos="2.30" departSpeed="13.54" departDelay="0.91" arrival="191.00" arrivalLane="24968394_0" arrivalPos="43.17" arrivalSpeed="11.48" duration="109.00" routeLength="690.05" waitingTime="41.00" waitingCount="2" stopTime="0.00" timeLoss="56.48" rerouteNo="1" devices="tripinfo_motorcycle18 routing_motorcycle18" vType="motorcycle_motorcycle" speedFactor="0.97" vaporized=""/>
    <tripinfo id="veh2" depart="8.00" departLane="1055414211#0_0" departPos="4.48" departSpeed="0.00" departDelay="0.79" arrival="191.00" arrivalLane="24914141#8_1" arrivalPos="116.42" arrivalSpeed="15.58" duration="183.00" routeLength="1578.29" waitingTime="29.00" waitingCount="3" stopTime="0.00" timeLoss="72.63" rerouteNo="1" devices="tripinfo_veh2 routing_veh2" vType="veh_passenger" speedFactor="1.17" vaporized=""/>
    <tripinfo id="motorcycle6" depart="64.00" departLane="310357283#0_0" departPos="0.20" departSpeed="5.87" departDelay="36.97" arrival="192.00" arrivalLane="311690284_1" arrivalPos="64.31" arrivalSpeed="13.31" duration="128.00" routeLength="997.86" waitingTime="11.00" waitingCount="1" stopTime="0.00" timeLoss="60.21" rerouteNo="1" devices="tripinfo_motorcycle6 routing_motorcycle6" vType="motorcycle_motorcycle" speedFactor="1.09" vaporized=""/>
    <tripinfo id="veh12" depart="44.00" departLane="4615403#1_0" departPos="5.10" departSpeed="0.00" departDelay="0.75" arrival="192.00" arrivalLane="319339413#4_1" arrivalPos="63.44" arrivalSpeed="8.27" duration="148.00" routeLength="1178.86" waitingTime="21.00" waitingCount="3" stopTime="0.00" timeLoss="57.30" rerouteNo="1" devices="tripinfo_veh12 routing_veh12" vType="veh_passenger" speedFactor="1.12" vaporized=""/>
    <tripinfo id="motorcycle15" depart="68.00" departLane="-1107953482_0" departPos="2.30" departSpeed="9.65" departDelay="0.43" arrival="194.00" arrivalLane="-4615404#0_0" arrivalPos="1.81" arrivalSpeed="8.08" duration="126.00" routeLength="1170.62" waitingTime="0.00" waitingCount="0" stopTime="0.00" timeLoss="27.22" rerouteNo="1" devices="tripinfo_motorcycle15 routing_motorcycle15" vType="motorcycle_motorcycle" speedFactor="1.16" vaporized=""/>
    <tripinfo id="bus6" depart="36.00" departLane="147646826#1_0" departPos="12.10" departSpeed="0.00" departDelay="0.00" arrival="195.00" arrivalLane="24914141#8_1" arrivalPos="116.42" arrivalSpeed="13.64" duration="159.00" routeLength="1147.10" waitingTime="38.00" waitingCount="2" stopTime="0.00" timeLoss="75.60" rerouteNo="1" devices="tripinfo_bus6 routing_bus6" vType="bus_bus" speedFactor="1.00" vaporized=""/>
    <tripinfo id="veh28" depart="101.00" departLane="-1095365675#2_0" departPos="0.20" departSpeed="0.00" departDelay="0.09" arrival="195.00" arrivalLane="4790801_0" arrivalPos="19.76" arrivalSpeed="12.65" duration="94.00" routeLength="782.44" waitingTime="11.00" waitingCount="2" stopTime="0.00" timeLoss="30.28" rerouteNo="1" devices="tripinfo_veh28 routing_veh28" vType="veh_passenger" speedFactor="0.98" vaporized=""/>
    <tripinfo id="motorcycle22" depart="100.00" departLane="373389574#2_0" departPos="2.30" departSpeed="0.00" departDelay="0.89" arrival="196.00" arrivalLane="319339413#4_0" arrivalPos="63.44" arrivalSpeed="5.09" duration="96.00" routeLength="497.91" waitingTime="22.00" waitingCount="1" stopTime="0.00" timeLoss="38.82" rerouteNo="1" devices="tripinfo_motorcycle22 routing_motorcycle22" vType="motorcycle_motorcycle" speedFactor="0.92" vaporized=""/>
    <tripinfo id="truck4" depart="25.00" departLane="1096709562#1_0" departPos="7.20" departSpeed="0.00" departDelay="0.97" arrival="196.00" arrivalLane="24914141#8_0" arrivalPos="116.42" arrivalSpeed="13.31" duration="171.00" routeLength="1152.79" waitingTime="31.00" waitingCount="4" stopTime="0.00" timeLoss="84.62" rerouteNo="1" devices="tripinfo_truck4 routing_truck4" vType="truck_truck" speedFactor="0.98" vaporized=""/>
    <tripinfo id="veh19" depart="69.00" departLane="728838409_0" departPos="5.10" departSpeed="14.45" departDelay="0.53" arrival="197.00" arrivalLane="373389574#2_0" arrivalPos="17.44" arrivalSpeed="8.49" duration="128.00" routeLength="962.67" waitingTime="27.00" waitingCount="2" stopTime="0.00" timeLoss="51.50" rerouteNo="1" devices="tripinfo_veh19 routing_veh19" vType="veh_passenger" speedFactor="1.04" vaporized=""/>
    <tripinfo id="motorcycle14" depart="64.00" departLane="-4614989#0_0" departPos="2.30" departSpeed="0.00" departDelay="0.93" arrival="198.00" arrivalLane="1055414211#1_0" arrivalPos="80.79" arrivalSpeed="4.82" duration="134.00" routeLength="672.91" waitingTime="40.00" waitingCount="4" stopTime="0.00" timeLoss="66.40" rerouteNo="1" devices="tripinfo_motorcycle14 routing_motorcycle14" vType="motorcycle_motorcycle" speedFactor="0.94" vaporized=""/>
    <tripinfo id="motorcycle37" depart="167.00" departLane="1413812166#2_0" departPos="2.30" departSpeed="0.00" departDelay="0.32" arrival="199.00" arrivalLane="-1413812166#0_0" arrivalPos="37.95" arrivalSpeed="7.44" duration="32.00" routeLength="185.05" waitingTime="0.00" waitingCount="0" stopTime="0.00" timeLoss="7.08" rerouteNo="1" devices="tripinfo_motorcycle37 routing_motorcycle37" vType="motorcycle_motorcycle" speedFactor="0.96" vaporized=""/>
    <tripinfo id="veh29" depart="105.00" departLane="4790810_0" departPos="5.10" departSpeed="13.99" departDelay="0.49" arrival="200.00" arrivalLane="333369841_0" arrivalPos="2.58" arrivalSpeed="13.66" duration="95.00" routeLength="866.14" waitingTime="24.00" waitingCount="1" stopTime="0.00" timeLoss="32.04" rerouteNo="1" devices="tripinfo_veh29 routing_veh29" vType="veh_passenger" speedFactor="1.01" vaporized=""/>
    <tripinfo id="veh27" depart="98.00" departLane="-1006033769_0" departPos="5.10" departSpeed="0.00" departDelay="0.69" arrival="205.00" arrivalLane="1138696720#0_0" arrivalPos="10.32" arrivalSpeed="7.85" duration="107.00" routeLength="898.23" waitingTime="0.00" waitingCount="0" stopTime="0.00" timeLoss="17.63" rerouteNo="1" devices="tripinfo_veh27 routing_veh27" vType="veh_passenger" speedFactor="1.03" vaporized=""/>
    <tripinfo id="veh13" depart="47.00" departLane="1095365675#2_0" departPos="0.20" departSpeed="0.00" departDelay="0.15" arrival="206.00" arrivalLane="-111251391#1_0" arrivalPos="20.13" arrivalSpeed="13.19" duration="159.00" routeLength="1222.93" waitingTime="34.00" waitingCount="2" stopTime="0.00" timeLoss="60.73" rerouteNo="1" devices="tripinfo_veh13 routing_veh13" vType="veh_passenger" speedFactor="1.02" vaporized=""/>
    <tripinfo id="veh37" depart="134.00" departLane="1095407470#0_0" departPos="2.08" departSpeed="0.00" departDelay="0.65" arrival="206.00" arrivalLane="1104460750_1" arrivalPos="21.54" arrivalSpeed="13.60" duration="72.00" routeLength="660.00" waitingTime="0.00" waitingCount="0" stopTime="0.00" timeLoss="10.03" rerouteNo="1" devices="tripinfo_veh37 routing_veh37" vType="veh_passenger" speedFactor="1.00" vaporized=""/>
    <tripinfo id="bus1" depart="56.00" departLane="310357283#0_0" departPos="0.20" departSpeed="4.64" departDelay="50.00" arrival="211.00" arrivalLane="-1040630268#3_0" arrivalPos="26.07" arrivalSpeed="8.05" duration="155.00" routeLength="1074.65" waitingTime="25.00" waitingCount="4" stopTime="0.00" timeLoss="69.53" rerouteNo="1" devices="tripinfo_bus1 routing_bus1" vType="bus_bus" speedFactor="1.00" vaporized=""/>
    <tripinfo id="truck9" depart="66.00" departLane="310357283#0_0" departPos="0.20" departSpeed="5.83" departDelay="11.94" arrival="211.00" arrivalLane="1144528529#1_0" arrivalPos="1.28" arrivalSpeed="8.51" duration="145.00" routeLength="984.53" waitingTime="10.00" waitingCount="2" stopTime="0.00" timeLoss="73.31" rerouteNo="1" devices="tripinfo_truck9 routing_truck9" vType="truck_truck" speedFactor="1.05" vaporized=""/>
    <tripinfo id="veh17" depart="62.00" departLane="-1152640371#0_0" departPos="4.37" departSpeed="0.00" departDelay="0.73" arrival="212.00" arrivalLane="182620302#2_0" arrivalPos="4.51" arrivalSpeed="11.32" duration="150.00" routeLength="1052.58" waitingTime="24.00" waitingCount="3" stopTime="0.00" timeLoss="57.07" rerouteNo="1" devices="tripinfo_veh17 routing_veh17" vType="veh_passenger" speedFactor="0.91" vaporized=""/>
    <tripinfo id="bus18" depart="109.00" departLane="-566764344#1_0" departPos="9.54" departSpeed="0.00" departDelay="0.99" arrival="213.00" arrivalLane="24968394_0" arrivalPos="43.17" arrivalSpeed="13.67" duration="104.00" routeLength="773.59" waitingTime="10.00" waitingCount="2" stopTime="0.00" timeLoss="37.44" rerouteNo="1" devices="tripinfo_bus18 routing_bus18" vType="bus_bus" speedFactor="1.00" vaporized=""/>
    <tripinfo id="motorcycle20" depart="91.00" departLane="728838409_0" departPos="2.30" departSpeed="11.47" departDelay="0.90" arrival="213.00" arrivalLane="288749951_0" arrivalPos="12.36" arrivalSpeed="9.36" duration="122.00" routeLength="898.66" waitingTime="17.00" waitingCount="2" stopTime="0.00" timeLoss="41.21" rerouteNo="1" devices="tripinfo_motorcycle20 routing_motorcycle20" vType="motorcycle_motorcycle" speedFactor="0.83" vaporized=""/>
    <tripinfo id="veh10" depart="37.00" departLane="728838409_0" departPos="5.10" departSpeed="13.47" departDelay="0.96" arrival="216.00" arrivalLane="300401898_2" arrivalPos="103.27" arrivalSpeed="13.46" duration="179.00" routeLength="1253.69" waitingTime="41.00" waitingCount="5" stopTime="0.00" timeLoss="82.56" rerouteNo="1" devices="tripinfo_veh10 routing_veh10" vType="veh_passenger" speedFactor="0.97" vaporized=""/>
    <tripinfo id="bus12" depart="73.00" departLane="1373064823#0_1" departPos="12.10" departSpeed="13.61" departDelay="0.99" arrival="218.00" arrivalLane="4615407#3_0" arrivalPos="6.89" arrivalSpeed="7.81" duration="145.00" routeLength="917.27" waitingTime="24.00" waitingCount="3" stopTime="0.00" timeLoss="67.78" rerouteNo="1" devices="tripinfo_bus12 routing_bus12" vType="bus_bus" speedFactor="1.00" vaporized=""/>
    <tripinfo id="veh6" depart="22.00" departLane="4615406#1_0" departPos="5.01" departSpeed="0.00" departDelay="0.38" arrival="220.00" arrivalLane="296122995#0_2" arrivalPos="1.95" arrivalSpeed="12.75" duration="198.00" routeLength="1267.30" waitingTime="52.00" waitingCount="5" stopTime="0.00" timeLoss="96.75" rerouteNo="1" devices="tripinfo_veh6 routing_veh6" vType="veh_passenger" speedFactor="1.00" vaporized=""/>