<?xml version="1.0" encoding="UTF-8"?>

<!-- generated on 2025-12-25 08:13:41 by Eclipse SUMO GUI Version 1.23.1
<sumoConfiguration xmlns:xsi="http://www.w3.org/2001/XMLSchema-instance" xsi:noNamespaceSchemaLocation="http://sumo.dlr.de/xsd/sumoConfiguration.xsd">

    <input>
        <net-file value="osm_opposite.net.xml"/>
        <route-files value="osm.bus.trips.xml,osm.motorcycle.trips.xml,osm.passenger.trips.xml,osm.truck.trips.xml"/>
        <additional-files value="osm.poly.xml.gz,output.add.xml,opposite.add.xml"/>
    </input>

    <output>
        <tripinfo-output value="tripinfos.xml"/>
        <statistic-output value="stats.xml"/>
    </output>

    <processing>
        <lateral-resolution value="0.8"/>
        <ignore-route-errors value="true"/>
        <time-to-teleport value="-1"/>
        <tls.actuated.jam-threshold value="30"/>
    </processing>

    <routing>
        <device.rerouting.adaptation-steps value="18"/>
        <device.rerouting.adaptation-interval value="10"/>
    </routing>

    <report>
        <verbose value="true"/>
        <duration-log.statistics value="true"/>
        <no-step-log value="true"/>
    </report>

    <traci_server>
        <remote-port value="60358"/>
    </traci_server>

    <gui_only>
        <gui-settings-file value="osm.view.xml"/>
    </gui_only>

</sumoConfiguration>
-->

<tripinfos xmlns:xsi="http://www.w3.org/2001/XMLSchema-instance" xsi:noNamespaceSchemaLocation="http://sumo.dlr.de/xsd/tripinfo_file.xsd">
    <tripinfo id="veh14" depart="41.00" departLane="-47755711#3_0" departPos="5.10" departPosLat="0.00" departSpeed="0.00" departDelay="0.46" arrival="82.00" arrivalLane="1132163645#5_0" arrivalPos="81.28" arrivalPosLat="0.00" arrivalSpeed="12.17" duration="41.00" routeLength="274.34" waitingTime="1.00" waitingCount="1" stopTime="0.00" timeLoss="9.36" rerouteNo="1" devices="tripinfo_veh14 routing_veh14" vType="passenger" speedFactor="0.94" vaporized=""/>
    <tripinfo id="motorcycle0" depart="0.00" departLane="-4588215#1_0" departPos="2.30" departPosLat="0.00" departSpeed="0.00" departDelay="0.00" arrival="91.00" arrivalLane="-4396528#3_0" arrivalPos="82.30" arrivalPosLat="0.00" arrivalSpeed="7.66" duration="91.00" routeLength="835.58" waitingTime="1.00" waitingCount="1" stopTime="0.00" timeLoss="17.70" rerouteNo="1" devices="tripinfo_motorcycle0 routing_motorcycle0" vType="motorcycle_motorcycle" speedFactor="1.06" vaporized=""/>
    <tripinfo id="motorcycle4" depart="18.00" departLane="-1110753055#0_0" departPos="2.30" departPosLat="0.00" departSpeed="0.00" departDelay="0.62" arrival="98.00" arrivalLane="-356359316#1_0" arrivalPos="83.56" arrivalPosLat="0.00" arrivalSpeed="6.09" duration="80.00" routeLength="583.35" waitingTime="0.00" waitingCount="0" stopTime="0.00" timeLoss="16.68" rerouteNo="1" devices="tripinfo_motorcycle4 routing_motorcycle4" vType="motorcycle_motorcycle" speedFactor="0.94" vaporized=""/>
    <tripinfo id="motorcycle12" depart="53.00" departLane="1152723801_0" departPos="2.30" departPosLat="0.00" departSpeed="0.00" departDelay="0.87" arrival="98.00" arrivalLane="81113584#0_0" arrivalPos="14.13" arrivalPosLat="0.00" arrivalSpeed="11.63" duration="45.00" routeLength="380.76" waitingTime="0.00" waitingCount="0" stopTime="0.00" timeLoss="8.11" rerouteNo="1" devices="tripinfo_motorcycle12 routing_motorcycle12" vType="motorcycle_motorcycle" speedFactor="0.88" vaporized=""/>
    <tripinfo id="veh11" depart="32.00" departLane="-542983664_0" departPos="0.97" departPosLat="0.00" departSpeed="7.36" departDelay="0.14" arrival="104.00" arrivalLane="-375311155#2_1" arrivalPos="54.61" arrivalPosLat="0.00" arrivalSpeed="9.09" duration="72.00" routeLength="590.15" waitingTime="0.00" waitingCount="0" stopTime="0.00" timeLoss="7.20" rerouteNo="1" devices="tripinfo_veh11 routing_veh11" vType="passenger" speedFactor="1.12" vaporized=""/>
    <tripinfo id="veh16" depart="47.00" departLane="1199889721#1_0" departPos="5.10" departPosLat="0.00" departSpeed="0.00" departDelay="0.66" arrival="110.00" arrivalLane="81113584#0_1" arrivalPos="14.13" arrivalPosLat="0.00" arrivalSpeed="6.70" duration="63.00" routeLength="357.24" waitingTime="2.00" waitingCount="1" stopTime="0.00" timeLoss="16.71" rerouteNo="1" devices="tripinfo_veh16 routing_veh16" vType="passenger" speedFactor="0.91" vaporized=""/>
    <tripinfo id="motorcycle8" depart="35.00" departLane="710761406#2_0" departPos="2.30" departPosLat="0.00" departSpeed="0.00" departDelay="0.25" arrival="111.00" arrivalLane="-681299268_0" arrivalPos="0.47" arrivalPosLat="0.00" arrivalSpeed="7.54" duration="76.00" routeLength="517.91" waitingTime="1.00" waitingCount="1" stopTime="0.00" timeLoss="15.82" rerouteNo="1" devices="tripinfo_motorcycle8 routing_motorcycle8" vType="motorcycle_motorcycle" speedFactor="1.05" vaporized=""/>
    <tripinfo id="veh20" depart="58.00" departLane="327462543#0_0" departPos="5.10" departPosLat="0.00" departSpeed="0.00" departDelay="0.08" arrival="115.00" arrivalLane="-1147413288#1_1" arrivalPos="15.79" arrivalPosLat="0.00" arrivalSpeed="13.68" duration="57.00" routeLength="622.36" waitingTime="0.00" waitingCount="0" stopTime="0.00" timeLoss="9.28" rerouteNo="1" devices="tripinfo_veh20 routing_veh20" vType="passenger" speedFactor="1.02" vaporized=""/>
    <tripinfo id="veh3" depart="9.00" departLane="4611712_0" departPos="5.10" departPosLat="0.00" departSpeed="0.00" departDelay="0.31" arrival="116.00" arrivalLane="-1228446781#3_0" arrivalPos="83.00" arrivalPosLat="0.00" arrivalSpeed="14.33" duration="107.00" routeLength="933.10" waitingTime="0.00" waitingCount="0" stopTime="0.00" timeLoss="11.98" rerouteNo="1" devices="tripinfo_veh3 routing_veh3" vType="passenger" speedFactor="1.10" vaporized=""/>
    <tripinfo id="motorcycle15" depart="66.00" departLane="4597336_0" departPos="2.30" departPosLat="0.00" departSpeed="0.00" departDelay="0.84" arrival="118.00" arrivalLane="159081774#0_1" arrivalPos="19.64" arrivalPosLat="0.00" arrivalSpeed="14.63" duration="52.00" routeLength="418.72" waitingTime="0.00" waitingCount="0" stopTime="0.00" timeLoss="10.33" rerouteNo="1" devices="tripinfo_motorcycle15 routing_motorcycle15" vType="motorcycle_motorcycle" speedFactor="1.16" vaporized=""/>
    <tripinfo id="motorcycle17" depart="74.00" departLane="-1151333062_0" departPos="2.30" departPosLat="0.00" departSpeed="0.00" departDelay="0.15" arrival="122.00" arrivalLane="-4611773_0" arrivalPos="34.53" arrivalPosLat="0.00" arrivalSpeed="6.49" duration="48.00" routeLength="352.18" waitingTime="0.00" waitingCount="0" stopTime="0.00" timeLoss="9.07" rerouteNo="1" devices="tripinfo_motorcycle17 routing_motorcycle17" vType="motorcycle_motorcycle" speedFactor="1.01" vaporized=""/>
    <tripinfo id="motorcycle6" depart="27.00" departLane="-327462545#3_0" departPos="2.30" departPosLat="0.00" departSpeed="0.00" departDelay="0.94" arrival="127.00" arrivalLane="160971191#3_1" arrivalPos="57.12" arrivalPosLat="0.00" arrivalSpeed="13.81" duration="100.00" routeLength="653.25" waitingTime="38.00" waitingCount="2" stopTime="0.00" timeLoss="53.87" rerouteNo="1" devices="tripinfo_motorcycle6 routing_motorcycle6" vType="motorcycle_motorcycle" speedFactor="1.09" vaporized=""/>
    <tripinfo id="motorcycle27" depart="118.00" departLane="-4597351#1_0" departPos="2.30" departPosLat="0.00" departSpeed="9.62" departDelay="0.71" arrival="132.00" arrivalLane="-4597351#0_0" arrivalPos="41.93" arrivalPosLat="0.00" arrivalSpeed="8.09" duration="14.00" routeLength="99.81" waitingTime="0.00" waitingCount="0" stopTime="0.00" timeLoss="2.91" rerouteNo="0" devices="tripinfo_motorcycle27 routing_motorcycle27" vType="motorcycle_motorcycle" speedFactor="1.15" vaporized=""/>
    <tripinfo id="veh0" depart="0.00" departLane="23017852#0_0" departPos="3.07" departPosLat="0.00" departSpeed="0.00" departDelay="0.00" arrival="135.00" arrivalLane="-1132164863_0" arrivalPos="93.01" arrivalPosLat="0.00" arrivalSpeed="7.14" duration="135.00" routeLength="874.27" waitingTime="20.00" waitingCount="1" stopTime="0.00" timeLoss="39.29" rerouteNo="1" devices="tripinfo_veh0 routing_veh0" vType="passenger" speedFactor="1.01" vaporized=""/>
    <tripinfo id="veh8" depart="24.00" departLane="-327756257#1_0" departPos="5.10" departPosLat="0.00" departSpeed="0.00" departDelay="0.83" arrival="135.00" arrivalLane="23755961_0" arrivalPos="188.50" arrivalPosLat="0.00" arrivalSpeed="8.32" duration="111.00" routeLength="803.10" waitingTime="1.00" waitingCount="1" stopTime="0.00" timeLoss="15.77" rerouteNo="1" devices="tripinfo_veh8 routing_veh8" vType="passenger" speedFactor="1.02" vaporized=""/>
    <tripinfo id="motorcycle10" depart="44.00" departLane="4597322#3_0" departPos="2.30" departPosLat="0.00" departSpeed="0.00" departDelay="0.56" arrival="142.00" arrivalLane="168928174#1_0" arrivalPos="193.68" arrivalPosLat="0.00" arrivalSpeed="6.51" duration="98.00" routeLength="601.12" waitingTime="5.00" waitingCount="1" stopTime="0.00" timeLoss="27.17" rerouteNo="1" devices="tripinfo_motorcycle10 routing_motorcycle10" vType="motorcycle_motorcycle" speedFactor="0.99" vaporized=""/>
    <tripinfo id="veh18" depart="53.00" departLane="4396109_0" departPos="5.10" departPosLat="0.00" departSpeed="0.00" departDelay="0.87" arrival="143.00" arrivalLane="25042806#0_0" arrivalPos="81.14" arrivalPosLat="0.00" arrivalSpeed="13.69" duration="90.00" routeLength="523.04" waitingTime="18.00" waitingCount="2" stopTime="0.00" timeLoss="33.83" rerouteNo="1" devices="tripinfo_veh18 routing_veh18" vType="passenger" speedFactor="1.04" vaporized=""/>
    <tripinfo id="motorcycle19" depart="83.00" departLane="-65040946#4_0" departPos="2.30" departPosLat="0.00" departSpeed="0.00" departDelay="0.46" arrival="146.00" arrivalLane="-375459783#0_0" arrivalPos="71.30" arrivalPosLat="0.00" arrivalSpeed="4.68" duration="63.00" routeLength="394.15" waitingTime="4.00" waitingCount="1" stopTime="0.00" timeLoss="18.52" rerouteNo="1" devices="tripinfo_motorcycle19 routing_motorcycle19" vType="motorcycle_motorcycle" speedFactor="0.89" vaporized=""/>
    <tripinfo id="veh19" depart="56.00" departLane="4588219#2_0" departPos="5.10" departPosLat="0.00" departSpeed="0.00" departDelay="0.98" arrival="157.00" arrivalLane="23017852#0_0" arrivalPos="3.07" arrivalPosLat="0.00" arrivalSpeed="7.48" duration="101.00" routeLength="790.99" waitingTime="1.00" waitingCount="1" stopTime="0.00" timeLoss="15.43" rerouteNo="1" devices="tripinfo_veh19 routing_veh19" vType="passenger" speedFactor="1.02" vaporized=""/>
    <tripinfo id="motorcycle25" depart="109.00" departLane="458953718_0" departPos="2.30" departPosLat="0.00" departSpeed="0.00" departDelay="0.40" arrival="158.00" arrivalLane="435164424_0" arrivalPos="11.62" arrivalPosLat="0.00" arrivalSpeed="11.18" duration="49.00" routeLength="273.79" waitingTime="0.00" waitingCount="0" stopTime="0.00" timeLoss="12.56" rerouteNo="1" devices="tripinfo_motorcycle25 routing_motorcycle25" vType="motorcycle_motorcycle" speedFactor="0.93" vaporized=""/>
    <tripinfo id="veh27" depart="79.00" departLane="-22972469#0_0" departPos="5.10" departPosLat="0.00" departSpeed="0.00" departDelay="0.81" arrival="162.00" arrivalLane="375311153_0" arrivalPos="59.58" arrivalPosLat="0.00" arrivalSpeed="7.29" duration="83.00" routeLength="594.04" waitingTime="0.00" waitingCount="0" stopTime="0.00" timeLoss="9.61" rerouteNo="1" devices="tripinfo_veh27 routing_veh27" vType="passenger" speedFactor="0.98" vaporized=""/>
    <tripinfo id="truck13" depart="57.00" departLane="-1147767890_0" departPos="6.53" departPosLat="0.00" departSpeed="0.00" departDelay="0.53" arrival="164.00" arrivalLane="-55495482#1_0" arrivalPos="120.93" arrivalPosLat="0.00" arrivalSpeed="13.60" duration="107.00" routeLength="990.42" waitingTime="11.00" waitingCount="2" stopTime="0.00" timeLoss="35.76" rerouteNo="1" devices="tripinfo_truck13 routing_truck13" vType="truck_truck" speedFactor="1.02" vaporized=""/>
    <tripinfo id="veh10" depart="29.00" departLane="404598741#1_3" departPos="0.20" departPosLat="0.00" departSpeed="0.00" departDelay="0.04" arrival="165.00" arrivalLane="356359316#3_0" arrivalPos="130.01" arrivalPosLat="0.00" arrivalSpeed="7.90" duration="136.00" routeLength="819.72" waitingTime="31.00" waitingCount="2" stopTime="0.00" timeLoss="44.83" rerouteNo="1" devices="tripinfo_veh10 routing_veh10" vType="passenger" speedFactor="1.08" vaporized=""/>
    <tripinfo id="motorcycle29" depart="126.00" departLane="4611773_0" departPos="2.30" departPosLat="0.00" departSpeed="0.00" departDelay="0.03" arrival="167.00" arrivalLane="-65040946#3_0" arrivalPos="17.60" arrivalPosLat="0.00" arrivalSpeed="9.22" duration="41.00" routeLength="333.63" waitingTime="0.00" waitingCount="0" stopTime="0.00" timeLoss="8.78" rerouteNo="1" devices="tripinfo_motorcycle29 routing_motorcycle29" vType="motorcycle_motorcycle" speedFactor="1.17" vaporized=""/>
    <tripinfo id="bus0" depart="0.00" departLane="159081777#1_0" departPos="12.10" departPosLat="0.00" departSpeed="0.00" departDelay="0.00" arrival="169.00" arrivalLane="-1132163645#3_0" arrivalPos="82.28" arrivalPosLat="0.00" arrivalSpeed="13.79" duration="169.00" routeLength="1058.77" waitingTime="6.00" waitingCount="2" stopTime="0.00" timeLoss="28.79" rerouteNo="1" devices="tripinfo_bus0 routing_bus0" vType="bus_bus" speedFactor="1.00" vaporized=""/>
    <tripinfo id="motorcycle3" depart="14.00" departLane="-327462543#2_1" departPos="2.30" departPosLat="0.00" departSpeed="0.00" departDelay="0.97" arrival="174.00" arrivalLane="1152723801_0" arrivalPos="90.69" arrivalPosLat="0.00" arrivalSpeed="6.08" duration="160.00" routeLength="995.14" waitingTime="7.00" waitingCount="2" stopTime="0.00" timeLoss="40.74" rerouteNo="1" devices="tripinfo_motorcycle3 routing_motorcycle3" vType="motorcycle_motorcycle" speedFactor="0.89" vaporized=""/>
    <tripinfo id="motorcycle5" depart="22.00" departLane="199847247#0_0" departPos="2.30" departPosLat="0.00" departSpeed="0.00" departDelay="0.28" arrival="174.00" arrivalLane="1199889721#1_0" arrivalPos="146.30" arrivalPosLat="0.55" arrivalSpeed="6.83" duration="152.00" routeLength="663.29" waitingTime="32.00" waitingCount="3" stopTime="0.00" timeLoss="61.45" rerouteNo="1" devices="tripinfo_motorcycle5 routing_motorcycle5" vType="motorcycle_motorcycle" speedFactor="0.86" vaporized=""/>
    <tripinfo id="truck3" depart="14.00" departLane="-1110748916_0" departPos="0.10" departPosLat="0.00" departSpeed="14.05" departDelay="0.97" arrival="180.00" arrivalLane="-4474915#0_0" arrivalPos="24.70" arrivalPosLat="0.00" arrivalSpeed="2.37" duration="166.00" routeLength="1218.23" waitingTime="0.00" waitingCount="0" stopTime="0.00" timeLoss="16.45" rerouteNo="1" devices="tripinfo_truck3 routing_truck3" vType="truck_truck" speedFactor="1.01" vaporized=""/>
    <tripinfo id="veh4" depart="12.00" departLane="1110759207#0_1" departPos="5.10" departPosLat="0.00" departSpeed="13.93" departDelay="0.42" arrival="181.00" arrivalLane="-1132166349_0" arrivalPos="65.68" arrivalPosLat="0.00" arrivalSpeed="8.24" duration="169.00" routeLength="1326.99" waitingTime="7.00" waitingCount="2" stopTime="0.00" timeLoss="30.80" rerouteNo="1" devices="tripinfo_veh4 routing_veh4" vType="passenger" speedFactor="1.00" vaporized=""/>
    <tripinfo id="veh44" depart="128.00" departLane="-1151333062_0" departPos="5.10" departPosLat="0.00" departSpeed="0.00" departDelay="0.58" arrival="182.00" arrivalLane="1151333058_0" arrivalPos="29.28" arrivalPosLat="0.00" arrivalSpeed="8.80" duration="54.00" routeLength="427.69" waitingTime="0.00" waitingCount="0" stopTime="0.00" timeLoss="6.74" rerouteNo="1" devices="tripinfo_veh44 routing_veh44" vType="passenger" speedFactor="1.09" vaporized=""/>
    <tripinfo id="motorcycle11" depart="50.00" departLane="4396528#3_0" departPos="2.30" departPosLat="0.00" departSpeed="0.00" departDelay="2.22" arrival="184.00" arrivalLane="356359316#2_0" arrivalPos="33.71" arrivalPosLat="0.00" arrivalSpeed="5.95" duration="134.00" routeLength="937.77" waitingTime="4.00" waitingCount="1" stopTime="0.00" timeLoss="27.58" rerouteNo="1" devices="tripinfo_motorcycle11 routing_motorcycle11" vType="motorcycle_motorcycle" speedFactor="0.93" vaporized=""/>
    <tripinfo id="truck1" depart="5.00" departLane="-375311158#0_0" departPos="5.94" departPosLat="0.00" departSpeed="0.00" departDelay="0.66" arrival="185.00" arrivalLane="-4597322#2_0" arrivalPos="18.90" arrivalPosLat="0.00" arrivalSpeed="7.59" duration="180.00" routeLength="1203.52" waitingTime="7.00" waitingCount="1" stopTime="0.00" timeLoss="28.99" rerouteNo="1" devices="tripinfo_truck1 routing_truck1" vType="truck_truck" speedFactor="0.92" vaporized=""/>
    <tripinfo id="bus6" depart="52.00" departLane="-1147413276_0" departPos="12.10" departPosLat="0.00" departSpeed="13.89" departDelay="0.01" arrival="186.00" arrivalLane="-1199889721#0_1" arrivalPos="46.90" arrivalPosLat="0.00" arrivalSpeed="8.01" duration="134.00" routeLength="1224.24" waitingTime="3.00" waitingCount="1" stopTime="0.00" timeLoss="25.54" rerouteNo="1" devices="tripinfo_bus6 routing_bus6" vType="bus_bus" speedFactor="1.00" vaporized=""/>
    <tripinfo id="veh12" depart="37.00" departLane="710761406#2_0" departPos="5.10" departPosLat="0.00" departSpeed="0.00" departDelay="2.25" arrival="186.00" arrivalLane="1116508491_0" arrivalPos="48.79" arrivalPosLat="0.00" arrivalSpeed="8.43" duration="149.00" routeLength="1230.51" waitingTime="1.00" waitingCount="1" stopTime="0.00" timeLoss="24.34" rerouteNo="1" devices="tripinfo_veh12 routing_veh12" vType="passenger" speedFactor="1.02" vaporized=""/>
    <tripinfo id="motorcycle1" depart="5.00" departLane="328064919#0_0" departPos="2.30" departPosLat="0.00" departSpeed="13.03" departDelay="0.66" arrival="189.00" arrivalLane="25041996#0_1" arrivalPos="53.69" arrivalPosLat="0.00" arrivalSpeed="6.68" duration="184.00" routeLength="963.25" waitingTime="49.00" waitingCount="3" stopTime="0.00" timeLoss="79.93" rerouteNo="1" devices="tripinfo_motorcycle1 routing_motorcycle1" vType="motorcycle_motorcycle" speedFactor="0.94" vaporized=""/>
    <tripinfo id="veh38" depart="111.00" departLane="-1147413271#1_0" departPos="5.10" departPosLat="0.00" departSpeed="13.99" departDelay="0.95" arrival="190.00" arrivalLane="1132166702#0_0" arrivalPos="33.40" arrivalPosLat="0.00" arrivalSpeed="7.97" duration="79.00" routeLength="660.82" waitingTime="1.00" waitingCount="1" stopTime="0.00" timeLoss="12.02" rerouteNo="1" devices="tripinfo_veh38 routing_veh38" vType="passenger" speedFactor="1.01" vaporized=""/>
    <tripinfo id="truck7" depart="31.00" departLane="-1147413276_0" departPos="7.20" departPosLat="0.00" departSpeed="12.65" departDelay="0.59" arrival="191.00" arrivalLane="-1199889721#0_0" arrivalPos="46.90" arrivalPosLat="-0.20" arrivalSpeed="4.58" duration="160.00" routeLength="1229.14" waitingTime="18.00" waitingCount="2" stopTime="0.00" timeLoss="41.06" rerouteNo="1" devices="tripinfo_truck7 routing_truck7" vType="truck_truck" speedFactor="0.91" vaporized=""/>
    <tripinfo id="truck30" depart="131.00" departLane="710761408#0_1" departPos="7.20" departPosLat="0.00" departSpeed="13.63" departDelay="0.68" arrival="192.00" arrivalLane="48859715#0_1" arrivalPos="52.37" arrivalPosLat="0.00" arrivalSpeed="13.29" duration="61.00" routeLength="310.00" waitingTime="19.00" waitingCount="2" stopTime="0.00" timeLoss="37.88" rerouteNo="1" devices="tripinfo_truck30 routing_truck30" vType="truck_truck" speedFactor="0.98" vaporized=""/>
    <tripinfo id="motorcycle13" depart="57.00" departLane="-66071387#3_0" departPos="2.30" departPosLat="0.00" departSpeed="0.00" departDelay="0.53" arrival="193.00" arrivalLane="1228558179#1_0" arrivalPos="58.03" arrivalPosLat="0.00" arrivalSpeed="6.18" duration="136.00" routeLength="828.75" waitingTime="0.00" waitingCount="0" stopTime="0.00" timeLoss="29.59" rerouteNo="1" devices="tripinfo_motorcycle13 routing_motorcycle13" vType="motorcycle_motorcycle" speedFactor="0.94" vaporized=""/>
    <tripinfo id="veh1" depart="3.00" departLane="-4588222#0_0" departPos="5.10" departPosLat="0.00" departSpeed="0.00" departDelay="0.10" arrival="194.00" arrivalLane="-475533030_0" arrivalPos="59.55" arrivalPosLat="0.00" arrivalSpeed="8.24" duration="191.00" routeLength="1477.87" waitingTime="2.00" waitingCount="1" stopTime="0.00" timeLoss="39.97" rerouteNo="1" devices="tripinfo_veh1 routing_veh1" vType="passenger" speedFactor="1.08" vaporized=""/>
    <tripinfo id="veh32" depart="93.00" departLane="24214089#1_1" departPos="5.10" departPosLat="0.00" departSpeed="0.00" departDelay="0.33" arrival="195.00" arrivalLane="1147413271#0_0" arrivalPos="38.03" arrivalPosLat="0.00" arrivalSpeed="13.64" duration="102.00" routeLength="744.63" waitingTime="7.00" waitingCount="2" stopTime="0.00" timeLoss="27.11" rerouteNo="1" devices="tripinfo_veh32 routing_veh32" vType="passenger" speedFactor="1.02" vaporized=""/>
    <tripinfo id="bus1" depart="9.00" departLane="4611774#4_0" departPos="12.10" departPosLat="0.00" departSpeed="0.00" departDelay="0.33" arrival="197.00" arrivalLane="-1152880160#0_0" arrivalPos="25.05" arrivalPosLat="0.00" arrivalSpeed="7.76" duration="188.00" routeLength="1343.07" waitingTime="15.00" waitingCount="2" stopTime="0.00" timeLoss="44.86" rerouteNo="1" devices="tripinfo_bus1 routing_bus1" vType="bus_bus" speedFactor="1.00" vaporized=""/>
    <tripinfo id="motorcycle41" depart="179.00" departLane="24214089#0_0" departPos="2.30" departPosLat="0.00" departSpeed="0.00" departDelay="0.90" arrival="198.00" arrivalLane="11845212_0" arrivalPos="27.22" arrivalPosLat="0.00" arrivalSpeed="14.70" duration="19.00" routeLength="249.42" waitingTime="0.00" waitingCount="0" stopTime="0.00" timeLoss="2.38" rerouteNo="1" devices="tripinfo_motorcycle41 routing_motorcycle41" vType="motorcycle_motorcycle" speedFactor="1.09" vaporized=""/>
    <tripinfo id="motorcycle23" depart="100.00" departLane="884209962#3_0" departPos="2.30" departPosLat="0.00" departSpeed="0.00" departDelay="0.09" arrival="201.00" arrivalLane="23017853_0" arrivalPos="51.91" arrivalPosLat="0.00" arrivalSpeed="7.60" duration="101.00" routeLength="617.12" waitingTime="0.00" waitingCount="0" stopTime="0.00" timeLoss="22.01" rerouteNo="1" devices="tripinfo_motorcycle23 routing_motorcycle23" vType="motorcycle_motorcycle" speedFactor="0.95" vaporized=""/>
    <tripinfo id="motorcycle16" depart="70.00" departLane="25042806#2_0" departPos="2.30" departPosLat="0.00" departSpeed="0.00" departDelay="0.50" arrival="202.00" arrivalLane="-1136657266#0_0" arrivalPos="65.76" arrivalPosLat="0.00" arrivalSpeed="7.12" duration="132.00" routeLength="923.54" waitingTime="15.00" waitingCount="3" stopTime="0.00" timeLoss="43.97" rerouteNo="1" devices="tripinfo_motorcycle16 routing_motorcycle16" vType="motorcycle_motorcycle" speedFactor="1.02" vaporized=""/>
    <tripinfo id="motorcycle37" depart="161.00" departLane="-1147413234#2_0" departPos="2.30" departPosLat="0.00" departSpeed="0.00" departDelay="0.27" arrival="202.00" arrivalLane="1057179327#0_0" arrivalPos="119.28" arrivalPosLat="0.00" arrivalSpeed="12.01" duration="41.00" routeLength="277.10" waitingTime="0.00" waitingCount="0" stopTime="0.00" timeLoss="10.96" rerouteNo="1" devices="tripinfo_motorcycle37 routing_motorcycle37" vType="motorcycle_motorcycle" speedFactor="0.96" vaporized=""/>
    <tripinfo id="motorcycle26" depart="113.00" departLane="-327756257#2_0" departPos="2.30" departPosLat="0.00" departSpeed="0.00" departDelay="0.06" arrival="206.00" arrivalLane="-1132164893#0_0" arrivalPos="22.68" arrivalPosLat="0.00" arrivalSpeed="15.41" duration="93.00" routeLength="688.27" waitingTime="8.00" waitingCount="1" stopTime="0.00" timeLoss="24.91" rerouteNo="1" devices="tripinfo_motorcycle26 routing_motorcycle26" vType="motorcycle_motorcycle" speedFactor="1.18" vaporized=""/>
    <tripinfo id="veh42" depart="122.00" departLane="28108856#0_1" departPos="5.10" departPosLat="0.00" departSpeed="0.00" departDelay="0.37" arrival="207.00" arrivalLane="160971194#1_3" arrivalPos="33.86" arrivalPosLat="0.00" arrivalSpeed="11.03" duration="85.00" routeLength="658.22" waitingTime="6.00" waitingCount="3" stopTime="0.00" timeLoss="25.48" rerouteNo="1" devices="tripinfo_veh42 routing_veh42" vType="passenger" speedFactor="0.83" vaporized=""/>
    <tripinfo id="motorcycle24" depart="105.00" departLane="11845184#0_1" departPos="2.30" departPosLat="0.00" departSpeed="0.00" departDelay="0.74" arrival="209.00" arrivalLane="28108856#0_0" arrivalPos="26.26" arrivalPosLat="0.00" arrivalSpeed="14.21" duration="104.00" routeLength="840.31" waitingTime="17.00" waitingCount="2" stopTime="0.00" timeLoss="48.05" rerouteNo="1" devices="tripinfo_motorcycle24 routing_motorcycle24" vType="motorcycle_motorcycle" speedFactor="1.13" vaporized=""/>
    <tripinfo id="motorcycle9" depart="40.00" departLane="-1151333057#1_0" departPos="2.30" departPosLat="0.00" departSpeed="0.00" departDelay="0.90" arrival="217.00" arrivalLane="-1152876522#1_0" arrivalPos="17.44" arrivalPosLat="0.00" arrivalSpeed="13.19" duration="177.00" routeLength="1088.40" waitingTime="34.00" waitingCount="4" stopTime="0.00" timeLoss="75.87" rerouteNo="1" devices="tripinfo_motorcycle9 routing_motorcycle9" vType="motorcycle_motorcycle" speedFactor="1.12" vaporized=""/>
    <tripinfo id="motorcycle33" depart="144.00" departLane="1228562464#1_0" departPos="0.20" departPosLat="0.00" departSpeed="0.00" departDelay="0.65" arrival="222.00" arrivalLane="508410318#0_0" arrivalPos="50.70" arrivalPosLat="0.00" arrivalSpeed="9.47" duration="78.00" routeLength="604.09" waitingTime="1.00" waitingCount="1" stopTime="0.00" timeLoss="15.30" rerouteNo="1" devices="tripinfo_motorcycle33 routing_motorcycle33" vType="motorcycle_motorcycle" speedFactor="1.18" vaporized=""/>
    <tripinfo id="veh17" depart="50.00" departLane="-753316506_0" departPos="5.10" departPosLat="0.00" departSpeed="0.00" departDelay="0.77" arrival="223.00" arrivalLane="166260138#0_0" arrivalPos="106.65" arrivalPosLat="0.00" arrivalSpeed="12.36" duration="173.00" routeLength="1399.21" waitingTime="0.00" waitingCount="0" stopTime="0.00" timeLoss="19.66" rerouteNo="1" devices="tripinfo_veh17 routing_veh17" vType="passenger" speedFactor="0.91" vaporized=""/>
    <tripinfo id="motorcycle38" depart="166.00" departLane="9657820#0_0" departPos="0.20" departPosLat="0.00" departSpeed="0.00" departDelay="0.93" arrival="225.00" arrivalLane="11845184#0_1" arrivalPos="72.96" arrivalPosLat="0.00" arrivalSpeed="12.49" duration="59.00" routeLength="343.89" waitingTime="21.00" waitingCount="2" stopTime="0.00" timeLoss="31.67" rerouteNo="1" devices="tripinfo_motorcycle38 routing_motorcycle38" vType="motorcycle_motorcycle" speedFactor="1.09" vaporized=""/>
    <tripinfo id="truck23" depart="100.00" departLane="9657820#0_0" departPos="0.20" departPosLat="0.00" departSpeed="0.00" departDelay="0.09" arrival="226.00" arrivalLane="1191472404_0" arrivalPos="29.77" arrivalPosLat="0.00" arrivalSpeed="8.72" duration="126.00" routeLength="792.34" waitingTime="13.00" waitingCount="2" stopTime="0.00" timeLoss="43.25" rerouteNo="1" devices="tripinfo_truck23 routing_truck23" vType="truck_truck" speedFactor="1.06" vaporized=""/>
    <tripinfo id="motorcycle36" depart="157.00" departLane="43376693#0_0" departPos="2.30" departPosLat="0.00" departSpeed="0.00" departDelay="0.62" arrival="227.00" arrivalLane="1123184404#0_0" arrivalPos="174.14" arrivalPosLat="0.00" arrivalSpeed="7.32" duration="70.00" routeLength="460.41" waitingTime="3.00" waitingCount="1" stopTime="0.00" timeLoss="16.27" rerouteNo="1" devices="tripinfo_motorcycle36 routing_motorcycle36" vType="motorcycle_motorcycle" speedFactor="1.03" vaporized=""/>
    <tripinfo id="truck11" depart="48.00" departLane="24214089#5_1" departPos="7.20" departPosLat="0.00" departSpeed="0.00" departDelay="0.22" arrival="233.00" arrivalLane="-1147413274_1" arrivalPos="69.49" arrivalPosLat="0.00" arrivalSpeed="14.22" duration="185.00" routeLength="1608.55" waitingTime="0.00" waitingCount="0" stopTime="0.00" timeLoss="34.43" rerouteNo="1" devices="tripinfo_truck11 routing_truck11" vType="truck_truck" speedFactor="1.03" vaporized=""/>
    <tripinfo id="motorcycle22" depart="96.00" departLane="-168935757#0_0" departPos="2.30" departPosLat="0.00" departSpeed="0.00" departDelay="0.43" arrival="235.00" arrivalLane="1057178318_0" arrivalPos="20.27" arrivalPosLat="0.00" arrivalSpeed="10.12" duration="139.00" routeLength="846.59" waitingTime="29.00" waitingCount="3" stopTime="0.00" timeLoss="59.34" rerouteNo="1" devices="tripinfo_motorcycle22 routing_motorcycle22" vType="motorcycle_motorcycle" speedFactor="0.92" vaporized=""/>
    <tripinfo id="motorcycle35" depart="153.00" departLane="-1152723807_0" departPos="2.30" departPosLat="0.00" departSpeed="0.00" departDelay="0.96" arrival="236.00" arrivalLane="22972470#0_0" arrivalPos="6.97" arrivalPosLat="0.00" arrivalSpeed="7.35" duration="83.00" routeLength="646.70" waitingTime="0.00" waitingCount="0" stopTime="0.00" timeLoss="16.18" rerouteNo="1" devices="tripinfo_motorcycle35 routing_motorcycle35" vType="motorcycle_motorcycle" speedFactor="0.90" vaporized=""/>
    <tripinfo id="truck5" depart="20.00" departLane="37289167#7_1" departPos="7.20" departPosLat="0.00" departSpeed="8.97" departDelay="0.00" arrival="236.00" arrivalLane="1123184404#0_0" arrivalPos="174.14" arrivalPosLat="0.00" arrivalSpeed="8.83" duration="216.00" routeLength="1520.22" waitingTime="20.00" waitingCount="3" stopTime="0.00" timeLoss="46.16" rerouteNo="1" devices="tripinfo_truck5 routing_truck5" vType="truck_truck" speedFactor="1.08" vaporized=""/>