<?xml version="1.0" encoding="UTF-8"?>

<!-- generated on 2025-12-25 07:15:11 by Eclipse SUMO GUI Version 1.23.1
<sumoConfiguration xmlns:xsi="http://www.w3.org/2001/XMLSchema-instance" xsi:noNamespaceSchemaLocation="http://sumo.dlr.de/xsd/sumoConfiguration.xsd">

    <input>
        <net-file value="osm_split_lanes.net.xml"/>
        <route-files value="osm.bus.trips.xml,osm.motorcycle.trips.xml,osm.passenger.trips.xml,osm.truck.trips.xml"/>
        <additional-files value="osm.poly.xml.gz,output.add.xml,opposite.add.xml"/>
    </input>

    <output>
        <tripinfo-output value="tripinfos.xml"/>
        <statistic-output value="stats.xml"/>
    </output>

    <processing>
        <lateral-resolution value="0.8"/>
        <ignore-route-errors value="true"/>
        <tls.actuated.jam-threshold value="30"/>
    </processing>

    <routing>
        <device.rerouting.adaptation-steps value="18"/>
        <device.rerouting.adaptation-interval value="10"/>
    </routing>

    <report>
        <verbose value="true"/>
        <duration-log.statistics value="true"/>
        <no-step-log value="true"/>
    </report>

    <gui_only>
        <gui-settings-file value="osm.view.xml"/>
    </gui_only>

</sumoConfiguration>
-->

<meandata xmlns:xsi="http://www.w3.org/2001/XMLSchema-instance" xsi:noNamespaceSchemaLocation="http://sumo.dlr.de/xsd/meandata_file.xsd">
    <interval begin="0.00" end="607.00" id="wizard_example">
        <edge id="-1046171603" sampledSeconds="0.00" departed="0" arrived="0" entered="0" left="0" laneChangedFrom="0" laneChangedTo="0"/>
        <edge id="-1046171603.14" sampledSeconds="0.00" departed="0" arrived="0" entered="0" left="0" laneChangedFrom="0" laneChangedTo="0"/>
        <edge id="-1046171603.30" sampledSeconds="0.00" departed="0" arrived="0" entered="0" left="0" laneChangedFrom="0" laneChangedTo="0"/>
        <edge id="-1056820803" sampledSeconds="0.00" departed="0" arrived="0" entered="0" left="0" laneChangedFrom="0" laneChangedTo="0"/>
        <edge id="-1056820803.6" sampledSeconds="0.00" departed="0" arrived="0" entered="0" left="0" laneChangedFrom="0" laneChangedTo="0"/>
        <edge id="-1057178318" sampledSeconds="39.83" traveltime="1.11" overlapTraveltime="1.93" density="5.97" laneDensity="5.97" occupancy="2.38" waitingTime="0.00" timeLoss="12.81" speed="8.84" speedRelative="0.64" departed="4" arrived="0" entered="19" left="23" laneChangedFrom="0" laneChangedTo="0"/>
        <edge id="-1057178318.14" sampledSeconds="36.98" traveltime="0.79" overlapTraveltime="1.75" density="10.19" laneDensity="10.19" occupancy="2.82" waitingTime="0.00" timeLoss="11.48" speed="7.04" speedRelative="0.51" departed="0" arrived="0" entered="23" left="23" laneChangedFrom="0" laneChangedTo="0"/>
        <edge id="-1057178318.21" sampledSeconds="29.64" traveltime="0.49" overlapTraveltime="1.40" density="16.39" laneDensity="16.39" occupancy="3.09" waitingTime="0.00" timeLoss="5.67" speed="6.45" speedRelative="0.46" departed="0" arrived="0" entered="23" left="23" laneChangedFrom="0" laneChangedTo="0"/>
        <edge id="-1057180460" sampledSeconds="18.36" traveltime="0.67" overlapTraveltime="1.19" density="4.60" laneDensity="2.30" occupancy="0.67" waitingTime="0.00" timeLoss="4.35" speed="10.32" speedRelative="0.74" departed="0" arrived="0" entered="16" left="16" laneChangedFrom="0" laneChangedTo="0"/>
        <edge id="-1057180460.108" sampledSeconds="31.55" traveltime="0.74" overlapTraveltime="2.13" density="6.93" laneDensity="3.47" occupancy="1.26" waitingTime="4.00" timeLoss="16.45" speed="6.47" speedRelative="0.47" departed="0" arrived="0" entered="16" left="16" laneChangedFrom="0" laneChangedTo="0"/>
        <edge id="-1057180460.115" sampledSeconds="56.35" traveltime="1.10" overlapTraveltime="3.80" density="21.19" laneDensity="10.60" occupancy="1.96" waitingTime="17.31" timeLoss="44.94" speed="2.74" speedRelative="0.20" departed="0" arrived="0" entered="16" left="16" laneChangedFrom="0" laneChangedTo="0"/>
        <edge id="-1057180460.120" sampledSeconds="114.02" traveltime="6.01" overlapTraveltime="7.06" density="32.78" laneDensity="16.39" occupancy="6.40" waitingTime="64.00" timeLoss="99.95" speed="1.54" speedRelative="0.11" departed="0" arrived="0" entered="16" left="16" laneChangedFrom="0" laneChangedTo="0"/>
        <edge id="-1057180460.13" sampledSeconds="28.16" traveltime="1.32" overlapTraveltime="1.79" density="3.09" laneDensity="1.55" occupancy="0.60" waitingTime="0.00" timeLoss="4.16" speed="11.51" speedRelative="0.83" departed="0" arrived="0" entered="16" left="16" laneChangedFrom="0" laneChangedTo="0"/>
        <edge id="-1057180460.28" sampledSeconds="26.60" traveltime="1.24" overlapTraveltime="1.69" density="2.92" laneDensity="1.46" occupancy="0.57" waitingTime="0.00" timeLoss="2.60" speed="12.19" speedRelative="0.88" departed="0" arrived="0" entered="16" left="16" laneChangedFrom="0" laneChangedTo="0"/>
        <edge id="-1057180460.43" sampledSeconds="14.35" traveltime="0.48" overlapTraveltime="0.94" density="3.95" laneDensity="1.98" occupancy="0.55" waitingTime="0.00" timeLoss="1.05" speed="12.53" speedRelative="0.90" departed="0" arrived="0" entered="16" left="16" laneChangedFrom="0" laneChangedTo="0"/>
        <edge id="-1057180460.49" sampledSeconds="26.29" traveltime="1.21" overlapTraveltime="1.67" density="2.89" laneDensity="1.44" occupancy="0.56" waitingTime="0.00" timeLoss="2.29" speed="12.33" speedRelative="0.89" departed="0" arrived="0" entered="16" left="16" laneChangedFrom="1" laneChangedTo="1"/>
        <edge id="-1057180460.64" sampledSeconds="25.94" traveltime="1.24" overlapTraveltime="1.67" density="2.85" laneDensity="1.42" occupancy="0.55" waitingTime="0.00" timeLoss="2.39" speed="12.26" speedRelative="0.88" departed="0" arrived="0" entered="16" left="16" laneChangedFrom="2" laneChangedTo="2"/>
        <edge id="-1057180460.79" sampledSeconds="11.40" traveltime="0.29" overlapTraveltime="0.76" density="5.20" laneDensity="2.60" occupancy="0.56" waitingTime="0.00" timeLoss="0.91" speed="12.45" speedRelative="0.90" departed="0" arrived="0" entered="16" left="16" laneChangedFrom="1" laneChangedTo="1"/>
        <edge id="-1057180460.83" sampledSeconds="22.38" traveltime="0.98" overlapTraveltime="1.42" density="3.01" laneDensity="1.51" occupancy="0.55" waitingTime="0.00" timeLoss="1.66" speed="12.51" speedRelative="0.90" departed="0" arrived="0" entered="16" left="16" laneChangedFrom="0" laneChangedTo="0"/>
        <edge id="-1057180460.95" sampledSeconds="24.40" traveltime="0.99" overlapTraveltime="1.56" density="3.33" laneDensity="1.66" occupancy="0.60" waitingTime="0.00" timeLoss="3.86" speed="11.37" speedRelative="0.82" departed="0" arrived="0" entered="16" left="16" laneChangedFrom="0" laneChangedTo="0"/>
        <edge id="-1057180954#0" sampledSeconds="15.02" traveltime="0.76" overlapTraveltime="1.23" density="3.16" laneDensity="1.58" occupancy="0.49" waitingTime="0.00" timeLoss="3.11" speed="10.61" speedRelative="0.76" departed="2" arrived="0" entered="11" left="13" laneChangedFrom="0" laneChangedTo="0"/>
        <edge id="-1057180954#0.14" sampledSeconds="20.53" traveltime="1.17" overlapTraveltime="1.60" density="2.50" laneDensity="1.25" occupancy="0.45" waitingTime="0.00" timeLoss="2.56" speed="11.72" speedRelative="0.84" departed="0" arrived="0" entered="13" left="13" laneChangedFrom="0" laneChangedTo="0"/>
        <edge id="-1057180954#0.28" sampledSeconds="17.51" traveltime="0.95" overlapTraveltime="1.37" density="2.50" laneDensity="1.25" occupancy="0.43" waitingTime="0.00" timeLoss="1.43" speed="12.29" speedRelative="0.89" departed="0" arrived="0" entered="13" left="13" laneChangedFrom="0" laneChangedTo="0"/>
        <edge id="-1057180954#0.40" sampledSeconds="20.75" traveltime="1.21" overlapTraveltime="1.61" density="2.30" laneDensity="1.15" occupancy="0.42" waitingTime="0.00" timeLoss="1.48" speed="12.43" speedRelative="0.90" departed="0" arrived="0" entered="13" left="13" laneChangedFrom="0" laneChangedTo="0"/>
        <edge id="-1057180954#0.55" sampledSeconds="20.40" traveltime="1.18" overlapTraveltime="1.59" density="2.24" laneDensity="1.12" occupancy="0.42" waitingTime="0.00" timeLoss="0.98" speed="12.74" speedRelative="0.92" departed="0" arrived="0" entered="13" left="13" laneChangedFrom="0" laneChangedTo="0"/>
        <edge id="-1057180954#0.70" sampledSeconds="15.49" traveltime="0.80" overlapTraveltime="1.22" density="2.48" laneDensity="1.24" occupancy="0.41" waitingTime="0.00" timeLoss="0.65" speed="12.83" speedRelative="0.92" departed="0" arrived="0" entered="13" left="13" laneChangedFrom="0" laneChangedTo="0"/>
        <edge id="-1057180954#0.80" sampledSeconds="21.31" traveltime="1.22" overlapTraveltime="1.65" density="2.34" laneDensity="1.17" occupancy="0.43" waitingTime="0.00" timeLoss="1.70" speed="12.20" speedRelative="0.88" departed="0" arrived="0" entered="13" left="13" laneChangedFrom="0" laneChangedTo="0"/>
        <edge id="-1057180954#0.95" sampledSeconds="6.34" traveltime="0.06" overlapTraveltime="0.55" density="15.35" laneDensity="7.68" occupancy="0.45" waitingTime="0.00" timeLoss="0.57" speed="11.65" speedRelative="0.84" departed="0" arrived="0" entered="13" left="13" laneChangedFrom="0" laneChangedTo="0"/>
        <edge id="-1057180954#1" sampledSeconds="15.26" traveltime="0.85" overlapTraveltime="1.30" density="2.44" laneDensity="1.22" occupancy="0.42" waitingTime="0.00" timeLoss="1.32" speed="12.20" speedRelative="0.88" departed="0" arrived="1" entered="12" left="11" laneChangedFrom="1" laneChangedTo="1"/>
        <edge id="-1057180954#1.15" sampledSeconds="17.71" traveltime="1.20" overlapTraveltime="1.64" density="1.94" laneDensity="0.97" occupancy="0.38" waitingTime="0.00" timeLoss="1.00" speed="12.58" speedRelative="0.91" departed="0" arrived="0" entered="11" left="11" laneChangedFrom="0" laneChangedTo="0"/>
        <edge id="-1057180954#1.30" sampledSeconds="17.41" traveltime="1.17" overlapTraveltime="1.61" density="1.91" laneDensity="0.96" occupancy="0.37" waitingTime="0.00" timeLoss="0.70" speed="12.80" speedRelative="0.92" departed="0" arrived="0" entered="11" left="11" laneChangedFrom="0" laneChangedTo="0"/>
        <edge id="-1057180954#1.44" sampledSeconds="9.21" traveltime="0.43" overlapTraveltime="0.88" density="2.80" laneDensity="1.40" occupancy="0.37" waitingTime="0.00" timeLoss="0.42" speed="12.75" speedRelative="0.92" departed="0" arrived="0" entered="11" left="11" laneChangedFrom="0" laneChangedTo="0"/>
        <edge id="-105747086" sampledSeconds="0.00" departed="0" arrived="0" entered="0" left="0" laneChangedFrom="0" laneChangedTo="0"/>
        <edge id="-105747086.10" sampledSeconds="0.00" departed="0" arrived="0" entered="0" left="0" laneChangedFrom="0" laneChangedTo="0"/>
        <edge id="-105747086.25" sampledSeconds="0.00" departed="0" arrived="0" entered="0" left="0" laneChangedFrom="0" laneChangedTo="0"/>
        <edge id="-105747086.39" sampledSeconds="0.00" departed="0" arrived="0" entered="0" left="0" laneChangedFrom="0" laneChangedTo="0"/>
        <edge id="-105747086.48" sampledSeconds="0.00" departed="0" arrived="0" entered="0" left="0" laneChangedFrom="0" laneChangedTo="0"/>
        <edge id="-105747086.51" sampledSeconds="0.00" departed="0" arrived="0" entered="0" left="0" laneChangedFrom="0" laneChangedTo="0"/>
        <edge id="-105747086.8" sampledSeconds="0.00" departed="0" arrived="0" entered="0" left="0" laneChangedFrom="0" laneChangedTo="0"/>
        <edge id="-1064531430#0" sampledSeconds="0.00" departed="0" arrived="0" entered="0" left="0" laneChangedFrom="0" laneChangedTo="0"/>
        <edge id="-1064531430#1" sampledSeconds="0.00" departed="0" arrived="0" entered="0" left="0" laneChangedFrom="0" laneChangedTo="0"/>
        <edge id="-1064531430#1.15" sampledSeconds="0.00" departed="0" arrived="0" entered="0" left="0" laneChangedFrom="0" laneChangedTo="0"/>
        <edge id="-1064531430#1.30" sampledSeconds="0.00" departed="0" arrived="0" entered="0" left="0" laneChangedFrom="0" laneChangedTo="0"/>
        <edge id="-1064531430#1.45" sampledSeconds="0.00" departed="0" arrived="0" entered="0" left="0" laneChangedFrom="0" laneChangedTo="0"/>
        <edge id="-1064531430#1.59" sampledSeconds="0.00" departed="0" arrived="0" entered="0" left="0" laneChangedFrom="0" laneChangedTo="0"/>
        <edge id="-1064531430#1.74" sampledSeconds="0.00" departed="0" arrived="0" entered="0" left="0" laneChangedFrom="0" laneChangedTo="0"/>
        <edge id="-1064531430#1.89" sampledSeconds="0.00" departed="0" arrived="0" entered="0" left="0" laneChangedFrom="0" laneChangedTo="0"/>
        <edge id="-1064531430#3" sampledSeconds="0.00" departed="0" arrived="0" entered="0" left="0" laneChangedFrom="0" laneChangedTo="0"/>
        <edge id="-1079386620#0" sampledSeconds="17.11" traveltime="1.41" overlapTraveltime="2.35" density="2.73" laneDensity="2.73" occupancy="1.09" waitingTime="0.00" timeLoss="1.62" speed="7.44" speedRelative="0.89" departed="0" arrived="2" entered="8" left="6" laneChangedFrom="0" laneChangedTo="0"/>
        <edge id="-1079386620#0.14" sampledSeconds="17.03" traveltime="1.99" overlapTraveltime="2.86" density="1.87" laneDensity="1.87" occupancy="0.84" waitingTime="0.00" timeLoss="1.21" speed="7.58" speedRelative="0.91" departed="0" arrived="0" entered="6" left="6" laneChangedFrom="0" laneChangedTo="0"/>
        <edge id="-1079386620#0.30" sampledSeconds="17.01" traveltime="1.99" overlapTraveltime="2.86" density="1.87" laneDensity="1.87" occupancy="0.84" waitingTime="0.00" timeLoss="1.19" speed="7.59" speedRelative="0.91" departed="0" arrived="0" entered="6" left="6" laneChangedFrom="0" laneChangedTo="0"/>
        <edge id="-1079386620#0.44" sampledSeconds="12.82" traveltime="1.29" overlapTraveltime="2.17" density="2.20" laneDensity="2.20" occupancy="0.84" waitingTime="0.00" timeLoss="0.96" speed="7.55" speedRelative="0.91" departed="0" arrived="0" entered="6" left="6" laneChangedFrom="0" laneChangedTo="0"/>
        <edge id="-1079386620#0.54" sampledSeconds="12.71" traveltime="1.28" overlapTraveltime="2.15" density="2.17" laneDensity="2.17" occupancy="0.83" waitingTime="0.00" timeLoss="0.85" speed="7.62" speedRelative="0.91" departed="0" arrived="0" entered="6" left="6" laneChangedFrom="0" laneChangedTo="0"/>
        <edge id="-1079386620#2" sampledSeconds="14.85" traveltime="0.92" overlapTraveltime="2.25" density="6.19" laneDensity="6.19" occupancy="1.57" waitingTime="0.00" timeLoss="5.18" speed="5.37" speedRelative="0.65" departed="2" arrived="0" entered="6" left="8" laneChangedFrom="0" laneChangedTo="0"/>
        <edge id="-1079386620#2.4" sampledSeconds="8.98" traveltime="0.04" overlapTraveltime="1.35" density="73.94" laneDensity="73.94" occupancy="1.44" waitingTime="0.00" timeLoss="1.99" speed="6.43" speedRelative="0.77" departed="0" arrived="0" entered="8" left="8" laneChangedFrom="0" laneChangedTo="0"/>
        <edge id="-109902441" sampledSeconds="10.17" traveltime="1.21" overlapTraveltime="2.09" density="2.27" laneDensity="2.27" occupancy="0.73" waitingTime="0.00" timeLoss="2.30" speed="6.55" speedRelative="0.79" departed="1" arrived="2" entered="5" left="4" laneChangedFrom="0" laneChangedTo="0"/>
        <edge id="-109902441.14" sampledSeconds="11.12" traveltime="1.97" overlapTraveltime="2.84" density="1.22" laneDensity="1.22" occupancy="0.51" waitingTime="0.00" timeLoss="1.19" speed="7.58" speedRelative="0.91" departed="0" arrived="0" entered="4" left="4" laneChangedFrom="0" laneChangedTo="0"/>
        <edge id="-109902441.29" sampledSeconds="11.10" traveltime="2.00" overlapTraveltime="2.84" density="1.22" laneDensity="1.22" occupancy="0.52" waitingTime="0.00" timeLoss="1.17" speed="7.59" speedRelative="0.91" departed="0" arrived="0" entered="4" left="4" laneChangedFrom="0" laneChangedTo="0"/>
        <edge id="-109902441.44" sampledSeconds="10.68" traveltime="1.92" overlapTraveltime="2.74" density="1.17" laneDensity="1.17" occupancy="0.50" waitingTime="0.00" timeLoss="0.75" speed="7.88" speedRelative="0.95" departed="0" arrived="0" entered="4" left="4" laneChangedFrom="0" laneChangedTo="0"/>
        <edge id="-109902441.59" sampledSeconds="21.29" traveltime="2.19" overlapTraveltime="5.29" density="2.34" laneDensity="2.34" occupancy="0.93" waitingTime="7.00" timeLoss="10.78" speed="3.96" speedRelative="0.47" departed="0" arrived="0" entered="4" left="4" laneChangedFrom="0" laneChangedTo="0"/>
        <edge id="-109902441.74" sampledSeconds="12.67" traveltime="1.80" overlapTraveltime="3.18" density="104.33" laneDensity="104.33" occupancy="1.44" waitingTime="7.00" timeLoss="9.22" speed="1.97" speedRelative="0.24" departed="0" arrived="0" entered="4" left="4" laneChangedFrom="0" laneChangedTo="0"/>
        <edge id="-1105574288#0" sampledSeconds="16.53" traveltime="1.39" overlapTraveltime="2.07" density="2.65" laneDensity="2.65" occupancy="0.87" waitingTime="0.00" timeLoss="2.07" speed="7.44" speedRelative="0.89" departed="0" arrived="1" entered="8" left="7" laneChangedFrom="0" laneChangedTo="0"/>
        <edge id="-1105574288#0.105" sampledSeconds="19.27" traveltime="1.96" overlapTraveltime="2.77" density="2.12" laneDensity="2.12" occupancy="0.84" waitingTime="0.00" timeLoss="2.36" speed="7.45" speedRelative="0.89" departed="0" arrived="0" entered="7" left="7" laneChangedFrom="0" laneChangedTo="0"/>
        <edge id="-1105574288#0.119" sampledSeconds="18.04" traveltime="1.75" overlapTraveltime="2.60" density="2.63" laneDensity="2.63" occupancy="1.00" waitingTime="0.00" timeLoss="4.18" speed="6.52" speedRelative="0.78" departed="0" arrived="0" entered="7" left="7" laneChangedFrom="0" laneChangedTo="0"/>
        <edge id="-1105574288#0.131" sampledSeconds="7.06" traveltime="0.20" overlapTraveltime="1.07" density="9.02" laneDensity="9.02" occupancy="0.94" waitingTime="0.00" timeLoss="1.47" speed="6.73" speedRelative="0.81" departed="0" arrived="0" entered="7" left="7" laneChangedFrom="0" laneChangedTo="0"/>
        <edge id="-1105574288#0.15" sampledSeconds="18.65" traveltime="1.97" overlapTraveltime="2.66" density="2.05" laneDensity="2.05" occupancy="0.81" waitingTime="0.00" timeLoss="1.75" speed="7.69" speedRelative="0.92" departed="0" arrived="0" entered="7" left="7" laneChangedFrom="0" laneChangedTo="0"/>
        <edge id="-1105574288#0.29" sampledSeconds="18.13" traveltime="1.92" overlapTraveltime="2.59" density="1.99" laneDensity="1.99" occupancy="0.79" waitingTime="0.00" timeLoss="1.23" speed="7.91" speedRelative="0.95" departed="0" arrived="0" entered="7" left="7" laneChangedFrom="0" laneChangedTo="0"/>
        <edge id="-1105574288#0.45" sampledSeconds="17.81" traveltime="1.86" overlapTraveltime="2.56" density="1.96" laneDensity="1.96" occupancy="0.79" waitingTime="0.00" timeLoss="0.91" speed="8.06" speedRelative="0.97" departed="0" arrived="0" entered="7" left="7" laneChangedFrom="0" laneChangedTo="0"/>
        <edge id="-1105574288#0.59" sampledSeconds="18.54" traveltime="1.94" overlapTraveltime="2.65" density="2.04" laneDensity="2.04" occupancy="0.80" waitingTime="0.00" timeLoss="1.63" speed="7.74" speedRelative="0.93" departed="0" arrived="0" entered="7" left="7" laneChangedFrom="0" laneChangedTo="0"/>
        <edge id="-1105574288#0.75" sampledSeconds="19.12" traveltime="2.00" overlapTraveltime="2.73" density="2.10" laneDensity="2.10" occupancy="0.83" waitingTime="0.00" timeLoss="2.22" speed="7.50" speedRelative="0.90" departed="0" arrived="0" entered="7" left="7" laneChangedFrom="0" laneChangedTo="0"/>
        <edge id="-1105574288#0.89" sampledSeconds="19.47" traveltime="2.06" overlapTraveltime="2.79" density="2.14" laneDensity="2.14" occupancy="0.85" waitingTime="0.00" timeLoss="2.57" speed="7.37" speedRelative="0.88" departed="0" arrived="0" entered="7" left="7" laneChangedFrom="0" laneChangedTo="0"/>
        <edge id="-1105574288#1" sampledSeconds="8.93" traveltime="0.26" overlapTraveltime="1.10" density="10.89" laneDensity="10.89" occupancy="1.15" waitingTime="0.00" timeLoss="2.21" speed="6.37" speedRelative="0.76" departed="0" arrived="1" entered="9" left="8" laneChangedFrom="0" laneChangedTo="0"/>
        <edge id="-1105574288#1.23" sampledSeconds="20.71" traveltime="1.94" overlapTraveltime="2.60" density="2.27" laneDensity="2.27" occupancy="0.85" waitingTime="0.00" timeLoss="1.81" speed="7.76" speedRelative="0.93" departed="0" arrived="0" entered="8" left="8" laneChangedFrom="0" laneChangedTo="0"/>
        <edge id="-1105574288#1.38" sampledSeconds="21.19" traveltime="1.99" overlapTraveltime="2.65" density="2.33" laneDensity="2.33" occupancy="0.86" waitingTime="0.00" timeLoss="2.28" speed="7.58" speedRelative="0.91" departed="0" arrived="0" entered="8" left="8" laneChangedFrom="0" laneChangedTo="0"/>
        <edge id="-1105574288#1.53" sampledSeconds="11.31" traveltime="0.75" overlapTraveltime="1.44" density="3.35" laneDensity="3.35" occupancy="0.87" waitingTime="0.00" timeLoss="1.28" speed="7.54" speedRelative="0.90" departed="0" arrived="0" entered="8" left="8" laneChangedFrom="0" laneChangedTo="0"/>
        <edge id="-1105574288#1.8" sampledSeconds="21.39" traveltime="2.02" overlapTraveltime="2.68" density="2.37" laneDensity="2.37" occupancy="0.88" waitingTime="0.00" timeLoss="2.63" speed="7.46" speedRelative="0.90" departed="0" arrived="0" entered="8" left="8" laneChangedFrom="0" laneChangedTo="0"/>
        <edge id="-1105574289#0" sampledSeconds="10.15" traveltime="1.12" overlapTraveltime="2.52" density="2.72" laneDensity="2.72" occupancy="0.58" waitingTime="0.00" timeLoss="5.20" speed="3.84" speedRelative="0.46" departed="0" arrived="0" entered="4" left="4" laneChangedFrom="0" laneChangedTo="0"/>
        <edge id="-1105574289#0.10" sampledSeconds="7.46" traveltime="0.55" overlapTraveltime="1.73" density="10.77" laneDensity="10.77" occupancy="0.98" waitingTime="0.00" timeLoss="4.84" speed="2.54" speedRelative="0.31" departed="0" arrived="0" entered="4" left="4" laneChangedFrom="0" laneChangedTo="0"/>
        <edge id="-1105574289#1" sampledSeconds="2.90" traveltime="0.19" overlapTraveltime="0.78" density="3.98" laneDensity="3.98" occupancy="0.36" waitingTime="0.00" timeLoss="0.57" speed="6.62" speedRelative="0.79" departed="0" arrived="0" entered="4" left="4" laneChangedFrom="0" laneChangedTo="0"/>
        <edge id="-1105574289#1.24" sampledSeconds="10.17" traveltime="2.05" overlapTraveltime="2.55" density="1.12" laneDensity="1.12" occupancy="0.32" waitingTime="0.00" timeLoss="1.11" speed="7.31" speedRelative="0.88" departed="0" arrived="0" entered="4" left="4" laneChangedFrom="0" laneChangedTo="0"/>
        <edge id="-1105574289#1.39" sampledSeconds="10.32" traveltime="2.09" overlapTraveltime="2.58" density="1.13" laneDensity="1.13" occupancy="0.32" waitingTime="0.00" timeLoss="1.26" speed="7.21" speedRelative="0.87" departed="0" arrived="0" entered="4" left="4" laneChangedFrom="0" laneChangedTo="0"/>
        <edge id="-1105574289#1.54" sampledSeconds="12.24" traveltime="2.13" overlapTraveltime="3.09" density="1.34" laneDensity="1.34" occupancy="0.35" waitingTime="1.00" timeLoss="3.18" speed="6.08" speedRelative="0.73" departed="0" arrived="0" entered="4" left="4" laneChangedFrom="0" laneChangedTo="0"/>
        <edge id="-1105574289#1.69" sampledSeconds="7.54" traveltime="1.11" overlapTraveltime="2.02" density="2.56" laneDensity="2.56" occupancy="0.67" waitingTime="1.00" timeLoss="3.42" speed="4.49" speedRelative="0.54" departed="0" arrived="0" entered="4" left="4" laneChangedFrom="0" laneChangedTo="0"/>
        <edge id="-1105574289#1.9" sampledSeconds="10.37" traveltime="2.09" overlapTraveltime="2.59" density="1.15" laneDensity="1.15" occupancy="0.32" waitingTime="0.00" timeLoss="1.38" speed="7.12" speedRelative="0.85" departed="0" arrived="0" entered="4" left="4" laneChangedFrom="0" laneChangedTo="0"/>
        <edge id="-1110748916" sampledSeconds="9.73" traveltime="0.03" overlapTraveltime="1.45" density="160.31" laneDensity="160.31" occupancy="1.58" waitingTime="0.00" timeLoss="6.24" speed="4.96" speedRelative="0.36" departed="4" arrived="0" entered="5" left="9" laneChangedFrom="0" laneChangedTo="0"/>
        <edge id="-1110750064" sampledSeconds="7.91" traveltime="1.22" overlapTraveltime="2.26" density="1.66" laneDensity="1.66" occupancy="0.62" waitingTime="0.00" timeLoss="1.71" speed="6.66" speedRelative="0.80" departed="1" arrived="0" entered="3" left="4" laneChangedFrom="0" laneChangedTo="0"/>
        <edge id="-1110750064.14" sampledSeconds="5.14" traveltime="0.38" overlapTraveltime="1.42" density="3.71" laneDensity="3.71" occupancy="0.61" waitingTime="0.00" timeLoss="0.95" speed="6.89" speedRelative="0.83" departed="0" arrived="0" entered="4" left="4" laneChangedFrom="0" laneChangedTo="0"/>
        <edge id="-1110750064.17" sampledSeconds="11.86" traveltime="2.10" overlapTraveltime="3.00" density="1.32" laneDensity="1.32" occupancy="0.57" waitingTime="0.00" timeLoss="1.74" speed="7.23" speedRelative="0.87" departed="0" arrived="0" entered="4" left="4" laneChangedFrom="0" laneChangedTo="0"/>
        <edge id="-1110750064.32" sampledSeconds="11.52" traveltime="2.05" overlapTraveltime="2.92" density="1.27" laneDensity="1.27" occupancy="0.56" waitingTime="0.00" timeLoss="1.33" speed="7.49" speedRelative="0.90" departed="0" arrived="0" entered="4" left="4" laneChangedFrom="0" laneChangedTo="0"/>
        <edge id="-1110750064.47" sampledSeconds="11.09" traveltime="1.92" overlapTraveltime="2.84" density="1.22" laneDensity="1.22" occupancy="0.55" waitingTime="0.00" timeLoss="0.90" speed="7.78" speedRelative="0.93" departed="0" arrived="0" entered="4" left="4" laneChangedFrom="0" laneChangedTo="0"/>
        <edge id="-1110750064.62" sampledSeconds="11.82" traveltime="2.00" overlapTraveltime="3.04" density="1.30" laneDensity="1.30" occupancy="0.57" waitingTime="0.00" timeLoss="1.63" speed="7.30" speedRelative="0.88" departed="0" arrived="0" entered="4" left="4" laneChangedFrom="0" laneChangedTo="0"/>
        <edge id="-1110750064.77" sampledSeconds="11.76" traveltime="1.89" overlapTraveltime="3.08" density="1.46" laneDensity="1.46" occupancy="0.68" waitingTime="0.00" timeLoss="2.01" speed="6.76" speedRelative="0.81" departed="0" arrived="0" entered="4" left="4" laneChangedFrom="0" laneChangedTo="0"/>
        <edge id="-1110750064.90" sampledSeconds="4.40" traveltime="0.05" overlapTraveltime="1.44" density="24.19" laneDensity="24.19" occupancy="0.69" waitingTime="0.00" timeLoss="0.90" speed="6.24" speedRelative="0.75" departed="0" arrived="0" entered="4" left="4" laneChangedFrom="0" laneChangedTo="0"/>
        <edge id="-1110751835#0" sampledSeconds="10.57" traveltime="0.49" overlapTraveltime="1.79" density="6.77" laneDensity="6.77" occupancy="1.25" waitingTime="0.00" timeLoss="4.02" speed="5.08" speedRelative="0.61" departed="2" arrived="0" entered="5" left="7" laneChangedFrom="0" laneChangedTo="0"/>
        <edge id="-1110751835#0.21" sampledSeconds="19.01" traveltime="1.95" overlapTraveltime="2.76" density="2.11" laneDensity="2.11" occupancy="0.87" waitingTime="0.00" timeLoss="1.47" speed="7.60" speedRelative="0.91" departed="0" arrived="0" entered="7" left="7" laneChangedFrom="0" laneChangedTo="0"/>
        <edge id="-1110751835#0.36" sampledSeconds="5.51" traveltime="0.03" overlapTraveltime="0.98" density="45.40" laneDensity="45.40" occupancy="0.88" waitingTime="0.00" timeLoss="0.38" speed="7.62" speedRelative="0.91" departed="0" arrived="0" entered="7" left="7" laneChangedFrom="0" laneChangedTo="0"/>
        <edge id="-1110751835#0.8" sampledSeconds="19.89" traveltime="2.09" overlapTraveltime="2.88" density="2.58" laneDensity="2.58" occupancy="0.95" waitingTime="0.00" timeLoss="4.19" speed="6.50" speedRelative="0.78" departed="0" arrived="0" entered="7" left="7" laneChangedFrom="0" laneChangedTo="0"/>
        <edge id="-1110752632#3" sampledSeconds="1.88" traveltime="0.01" overlapTraveltime="0.73" density="15.51" laneDensity="15.51" occupancy="0.30" waitingTime="0.00" timeLoss="0.49" speed="10.41" speedRelative="0.75" departed="1" arrived="0" entered="2" left="3" laneChangedFrom="0" laneChangedTo="0"/>
        <edge id="-1110752632#3.100" sampledSeconds="4.75" traveltime="1.12" overlapTraveltime="1.65" density="0.52" laneDensity="0.52" occupancy="0.24" waitingTime="0.00" timeLoss="0.29" speed="13.50" speedRelative="0.97" departed="0" arrived="0" entered="3" left="3" laneChangedFrom="0" laneChangedTo="0"/>
        <edge id="-1110752632#3.11" sampledSeconds="2.55" traveltime="0.33" overlapTraveltime="0.92" density="1.25" laneDensity="1.25" occupancy="0.26" waitingTime="0.00" timeLoss="0.49" speed="11.47" speedRelative="0.83" departed="0" arrived="0" entered="3" left="3" laneChangedFrom="0" laneChangedTo="0"/>
        <edge id="-1110752632#3.115" sampledSeconds="4.61" traveltime="1.06" overlapTraveltime="1.61" density="0.51" laneDensity="0.51" occupancy="0.23" waitingTime="0.00" timeLoss="0.14" speed="13.93" speedRelative="1.00" departed="0" arrived="0" entered="3" left="3" laneChangedFrom="0" laneChangedTo="0"/>
        <edge id="-1110752632#3.130" sampledSeconds="4.71" traveltime="1.10" overlapTraveltime="1.63" density="0.52" laneDensity="0.52" occupancy="0.23" waitingTime="0.00" timeLoss="0.24" speed="13.64" speedRelative="0.98" departed="0" arrived="0" entered="3" left="3" laneChangedFrom="0" laneChangedTo="0"/>
        <edge id="-1110752632#3.14" sampledSeconds="5.07" traveltime="1.22" overlapTraveltime="1.73" density="0.56" laneDensity="0.56" occupancy="0.24" waitingTime="0.00" timeLoss="0.61" speed="12.66" speedRelative="0.91" departed="0" arrived="0" entered="3" left="3" laneChangedFrom="0" laneChangedTo="0"/>