<?xml version="1.0" encoding="UTF-8"?>

<!-- generated on 2025-12-25 07:15:11 by Eclipse SUMO GUI Version 1.23.1
<sumoConfiguration xmlns:xsi="http://www.w3.org/2001/XMLSchema-instance" xsi:noNamespaceSchemaLocation="http://sumo.dlr.de/xsd/sumoConfiguration.xsd">

    <input>
        <net-file value="osm_split_lanes.net.xml"/>
        <route-files value="osm.bus.trips.xml,osm.motorcycle.trips.xml,osm.passenger.trips.xml,osm.truck.trips.xml"/>
        <additional-files value="osm.poly.xml.gz,output.add.xml,opposite.add.xml"/>
    </input>

    <output>
        <tripinfo-output value="tripinfos.xml"/>
        <statistic-output value="stats.xml"/>
    </output>

    <processing>
        <lateral-resolution value="0.8"/>
        <ignore-route-errors value="true"/>
        <tls.actuated.jam-threshold value="30"/>
    </processing>

    <routing>
        <device.rerouting.adaptation-steps value="18"/>
        <device.rerouting.adaptation-interval value="10"/>
    </routing>

    <report>
        <verbose value="true"/>
        <duration-log.statistics value="true"/>
        <no-step-log value="true"/>
    </report>

    <gui_only>
        <gui-settings-file value="osm.view.xml"/>
    </gui_only>

</sumoConfiguration>
-->

<tripinfos xmlns:xsi="http://www.w3.org/2001/XMLSchema-instance" xsi:noNamespaceSchemaLocation="http://sumo.dlr.de/xsd/tripinfo_file.xsd">
    <tripinfo id="veh14" depart="41.00" departLane="-47755711#3_0" departPos="0.20" departPosLat="0.00" departSpeed="0.00" departDelay="0.46" arrival="75.00" arrivalLane="1132163645#5_0" arrivalPos="2.65" arrivalPosLat="0.00" arrivalSpeed="7.91" duration="34.00" routeLength="203.41" waitingTime="0.00" waitingCount="0" stopTime="0.00" timeLoss="7.49" rerouteNo="1" devices="tripinfo_veh14 routing_veh14" vType="passenger" speedFactor="0.94" vaporized=""/>
    <tripinfo id="motorcycle0" depart="0.00" departLane="-4588215#1_0" departPos="2.30" departPosLat="0.00" departSpeed="0.00" departDelay="0.00" arrival="85.00" arrivalLane="-4396528#3_0" arrivalPos="10.39" arrivalPosLat="0.00" arrivalSpeed="7.36" duration="85.00" routeLength="799.10" waitingTime="1.00" waitingCount="1" stopTime="0.00" timeLoss="16.91" rerouteNo="1" devices="tripinfo_motorcycle0 routing_motorcycle0" vType="motorcycle_motorcycle" speedFactor="1.06" vaporized=""/>
    <tripinfo id="motorcycle12" depart="53.00" departLane="1152723801_0" departPos="2.30" departPosLat="0.00" departSpeed="0.00" departDelay="0.87" arrival="99.00" arrivalLane="81113584#0_0" arrivalPos="13.16" arrivalPosLat="0.00" arrivalSpeed="11.74" duration="46.00" routeLength="387.96" waitingTime="0.00" waitingCount="0" stopTime="0.00" timeLoss="8.74" rerouteNo="1" devices="tripinfo_motorcycle12 routing_motorcycle12" vType="motorcycle_motorcycle" speedFactor="0.88" vaporized=""/>
    <tripinfo id="motorcycle4" depart="18.00" departLane="-1110753055#0_0" departPos="2.30" departPosLat="0.00" departSpeed="0.00" departDelay="0.62" arrival="102.00" arrivalLane="-356359316#1_0" arrivalPos="10.01" arrivalPosLat="0.00" arrivalSpeed="7.75" duration="84.00" routeLength="523.62" waitingTime="15.00" waitingCount="2" stopTime="0.00" timeLoss="29.44" rerouteNo="1" devices="tripinfo_motorcycle4 routing_motorcycle4" vType="motorcycle_motorcycle" speedFactor="0.94" vaporized=""/>
    <tripinfo id="veh11" depart="32.00" departLane="-542983664_0" departPos="0.97" departPosLat="0.00" departSpeed="7.36" departDelay="0.14" arrival="102.00" arrivalLane="-375311155#2_1" arrivalPos="2.20" arrivalPosLat="0.00" arrivalSpeed="8.90" duration="70.00" routeLength="541.50" waitingTime="2.00" waitingCount="1" stopTime="0.00" timeLoss="10.63" rerouteNo="1" devices="tripinfo_veh11 routing_veh11" vType="passenger" speedFactor="1.12" vaporized=""/>
    <tripinfo id="motorcycle8" depart="35.00" departLane="710761406#2_0" departPos="0.20" departPosLat="0.00" departSpeed="0.00" departDelay="0.25" arrival="111.00" arrivalLane="-681299268_0" arrivalPos="0.47" arrivalPosLat="0.00" arrivalSpeed="7.41" duration="76.00" routeLength="525.36" waitingTime="0.00" waitingCount="0" stopTime="0.00" timeLoss="15.72" rerouteNo="1" devices="tripinfo_motorcycle8 routing_motorcycle8" vType="motorcycle_motorcycle" speedFactor="1.05" vaporized=""/>
    <tripinfo id="veh8" depart="24.00" departLane="-327756257#1_0" departPos="2.44" departPosLat="0.00" departSpeed="0.00" departDelay="0.83" arrival="113.00" arrivalLane="23755961_0" arrivalPos="1.13" arrivalPosLat="0.00" arrivalSpeed="5.43" duration="89.00" routeLength="638.18" waitingTime="0.00" waitingCount="0" stopTime="0.00" timeLoss="13.28" rerouteNo="1" devices="tripinfo_veh8 routing_veh8" vType="passenger" speedFactor="1.02" vaporized=""/>
    <tripinfo id="motorcycle10" depart="44.00" departLane="4597322#3_0" departPos="2.30" departPosLat="0.00" departSpeed="0.00" departDelay="0.56" arrival="114.00" arrivalLane="168928174#1_0" arrivalPos="0.13" arrivalPosLat="0.00" arrivalSpeed="4.78" duration="70.00" routeLength="410.79" waitingTime="6.00" waitingCount="1" stopTime="0.00" timeLoss="22.39" rerouteNo="1" devices="tripinfo_motorcycle10 routing_motorcycle10" vType="motorcycle_motorcycle" speedFactor="0.99" vaporized=""/>
    <tripinfo id="motorcycle15" depart="66.00" departLane="4597336_0" departPos="0.20" departPosLat="0.00" departSpeed="0.00" departDelay="0.84" arrival="115.00" arrivalLane="159081774#0_1" arrivalPos="0.20" arrivalPosLat="0.00" arrivalSpeed="12.45" duration="49.00" routeLength="396.87" waitingTime="0.00" waitingCount="0" stopTime="0.00" timeLoss="8.56" rerouteNo="1" devices="tripinfo_motorcycle15 routing_motorcycle15" vType="motorcycle_motorcycle" speedFactor="1.16" vaporized=""/>
    <tripinfo id="veh16" depart="47.00" departLane="1199889721#1_0" departPos="5.10" departPosLat="0.00" departSpeed="0.00" departDelay="0.66" arrival="118.00" arrivalLane="81113584#0_0" arrivalPos="13.16" arrivalPosLat="0.00" arrivalSpeed="7.20" duration="71.00" routeLength="372.00" waitingTime="7.00" waitingCount="2" stopTime="0.00" timeLoss="21.58" rerouteNo="1" devices="tripinfo_veh16 routing_veh16" vType="passenger" speedFactor="0.91" vaporized=""/>
    <tripinfo id="veh20" depart="58.00" departLane="327462543#0_0" departPos="5.10" departPosLat="0.00" departSpeed="0.00" departDelay="0.08" arrival="118.00" arrivalLane="-1147413288#1_1" arrivalPos="10.27" arrivalPosLat="0.00" arrivalSpeed="13.77" duration="60.00" routeLength="632.79" waitingTime="0.00" waitingCount="0" stopTime="0.00" timeLoss="10.11" rerouteNo="1" devices="tripinfo_veh20 routing_veh20" vType="passenger" speedFactor="1.02" vaporized=""/>
    <tripinfo id="motorcycle17" depart="74.00" departLane="-1151333062_0" departPos="0.20" departPosLat="0.00" departSpeed="0.00" departDelay="0.15" arrival="120.00" arrivalLane="-4611773_0" arrivalPos="0.20" arrivalPosLat="0.00" arrivalSpeed="4.01" duration="46.00" routeLength="325.88" waitingTime="0.00" waitingCount="0" stopTime="0.00" timeLoss="10.77" rerouteNo="1" devices="tripinfo_motorcycle17 routing_motorcycle17" vType="motorcycle_motorcycle" speedFactor="1.01" vaporized=""/>
    <tripinfo id="veh3" depart="9.00" departLane="4611712_0" departPos="5.10" departPosLat="0.00" departSpeed="0.00" departDelay="0.31" arrival="120.00" arrivalLane="-1228446781#3_0" arrivalPos="0.20" arrivalPosLat="0.00" arrivalSpeed="14.38" duration="111.00" routeLength="859.59" waitingTime="0.00" waitingCount="0" stopTime="0.00" timeLoss="20.50" rerouteNo="1" devices="tripinfo_veh3 routing_veh3" vType="passenger" speedFactor="1.10" vaporized=""/>
    <tripinfo id="motorcycle6" depart="27.00" departLane="-327462545#3_0" departPos="0.20" departPosLat="0.00" departSpeed="0.00" departDelay="0.94" arrival="124.00" arrivalLane="160971191#3_1" arrivalPos="10.38" arrivalPosLat="0.00" arrivalSpeed="14.91" duration="97.00" routeLength="649.75" waitingTime="37.00" waitingCount="2" stopTime="0.00" timeLoss="51.66" rerouteNo="1" devices="tripinfo_motorcycle6 routing_motorcycle6" vType="motorcycle_motorcycle" speedFactor="1.09" vaporized=""/>
    <tripinfo id="veh0" depart="0.00" departLane="23017852#0_0" departPos="3.07" departPosLat="0.00" departSpeed="0.00" departDelay="0.00" arrival="127.00" arrivalLane="-1132164863_0" arrivalPos="11.00" arrivalPosLat="0.00" arrivalSpeed="7.44" duration="127.00" routeLength="802.44" waitingTime="21.00" waitingCount="1" stopTime="0.00" timeLoss="39.24" rerouteNo="1" devices="tripinfo_veh0 routing_veh0" vType="passenger" speedFactor="1.01" vaporized=""/>
    <tripinfo id="motorcycle27" depart="118.00" departLane="-4597351#1_0" departPos="2.30" departPosLat="0.00" departSpeed="9.62" departDelay="0.71" arrival="127.00" arrivalLane="-4597351#0_0" arrivalPos="7.88" arrivalPosLat="0.00" arrivalSpeed="9.14" duration="9.00" routeLength="66.10" waitingTime="0.00" waitingCount="0" stopTime="0.00" timeLoss="1.81" rerouteNo="1" devices="tripinfo_motorcycle27 routing_motorcycle27" vType="motorcycle_motorcycle" speedFactor="1.15" vaporized=""/>
    <tripinfo id="veh18" depart="53.00" departLane="4396109_0" departPos="5.10" departPosLat="0.00" departSpeed="0.00" departDelay="0.87" arrival="130.00" arrivalLane="25042806#0_0" arrivalPos="10.31" arrivalPosLat="0.00" arrivalSpeed="13.70" duration="77.00" routeLength="488.33" waitingTime="11.00" waitingCount="1" stopTime="0.00" timeLoss="21.69" rerouteNo="1" devices="tripinfo_veh18 routing_veh18" vType="passenger" speedFactor="1.04" vaporized=""/>
    <tripinfo id="truck13" depart="57.00" departLane="-1147767890_0" departPos="2.78" departPosLat="0.00" departSpeed="3.76" departDelay="0.53" arrival="132.00" arrivalLane="-55495482#1_0" arrivalPos="7.79" arrivalPosLat="0.00" arrivalSpeed="13.58" duration="75.00" routeLength="900.07" waitingTime="0.00" waitingCount="0" stopTime="0.00" timeLoss="7.43" rerouteNo="1" devices="tripinfo_truck13 routing_truck13" vType="truck_truck" speedFactor="0.98" vaporized=""/>
    <tripinfo id="motorcycle5" depart="22.00" departLane="199847247#0_0" departPos="0.91" departPosLat="0.00" departSpeed="0.00" departDelay="0.28" arrival="138.00" arrivalLane="1199889721#1_1" arrivalPos="12.01" arrivalPosLat="0.00" arrivalSpeed="4.90" duration="116.00" routeLength="540.94" waitingTime="20.00" waitingCount="2" stopTime="0.00" timeLoss="43.04" rerouteNo="1" devices="tripinfo_motorcycle5 routing_motorcycle5" vType="motorcycle_motorcycle" speedFactor="0.86" vaporized=""/>
    <tripinfo id="motorcycle19" depart="83.00" departLane="-65040946#4_0" departPos="2.30" departPosLat="0.00" departSpeed="0.00" departDelay="0.46" arrival="138.00" arrivalLane="-375459783#0_0" arrivalPos="10.36" arrivalPosLat="0.00" arrivalSpeed="7.24" duration="55.00" routeLength="350.48" waitingTime="4.00" waitingCount="1" stopTime="0.00" timeLoss="17.53" rerouteNo="1" devices="tripinfo_motorcycle19 routing_motorcycle19" vType="motorcycle_motorcycle" speedFactor="0.89" vaporized=""/>
    <tripinfo id="veh10" depart="29.00" departLane="404598741#1_3" departPos="0.20" departPosLat="0.00" departSpeed="0.00" departDelay="0.04" arrival="153.00" arrivalLane="356359316#3_0" arrivalPos="10.21" arrivalPosLat="0.00" arrivalSpeed="8.20" duration="124.00" routeLength="733.35" waitingTime="26.00" waitingCount="2" stopTime="0.00" timeLoss="41.98" rerouteNo="1" devices="tripinfo_veh10 routing_veh10" vType="passenger" speedFactor="1.08" vaporized=""/>
    <tripinfo id="motorcycle25" depart="109.00" departLane="458953718_0" departPos="0.31" departPosLat="0.00" departSpeed="0.00" departDelay="0.40" arrival="157.00" arrivalLane="435164424_0" arrivalPos="10.10" arrivalPosLat="0.00" arrivalSpeed="7.47" duration="48.00" routeLength="279.96" waitingTime="0.00" waitingCount="0" stopTime="0.00" timeLoss="11.22" rerouteNo="1" devices="tripinfo_motorcycle25 routing_motorcycle25" vType="motorcycle_motorcycle" speedFactor="0.93" vaporized=""/>
    <tripinfo id="bus0" depart="0.00" departLane="159081777#1_0" departPos="0.38" departPosLat="0.00" departSpeed="0.00" departDelay="0.00" arrival="158.00" arrivalLane="-1132163645#3_0" arrivalPos="4.30" arrivalPosLat="0.00" arrivalSpeed="8.49" duration="158.00" routeLength="1012.51" waitingTime="0.00" waitingCount="0" stopTime="0.00" timeLoss="16.69" rerouteNo="1" devices="tripinfo_bus0 routing_bus0" vType="bus_bus" speedFactor="1.00" vaporized=""/>
    <tripinfo id="veh19" depart="56.00" departLane="4588219#2_0" departPos="0.81" departPosLat="0.00" departSpeed="0.00" departDelay="0.98" arrival="158.00" arrivalLane="23017852#0_0" arrivalPos="3.07" arrivalPosLat="0.00" arrivalSpeed="7.59" duration="102.00" routeLength="798.85" waitingTime="0.00" waitingCount="0" stopTime="0.00" timeLoss="16.41" rerouteNo="1" devices="tripinfo_veh19 routing_veh19" vType="passenger" speedFactor="1.02" vaporized=""/>
    <tripinfo id="motorcycle3" depart="14.00" departLane="-327462543#2_0" departPos="2.30" departPosLat="0.00" departSpeed="0.00" departDelay="0.97" arrival="160.00" arrivalLane="1152723801_0" arrivalPos="10.30" arrivalPosLat="0.00" arrivalSpeed="6.32" duration="146.00" routeLength="934.71" waitingTime="8.00" waitingCount="2" stopTime="0.00" timeLoss="35.32" rerouteNo="1" devices="tripinfo_motorcycle3 routing_motorcycle3" vType="motorcycle_motorcycle" speedFactor="0.89" vaporized=""/>
    <tripinfo id="truck30" depart="131.00" departLane="710761408#0_1" departPos="0.23" departPosLat="0.00" departSpeed="13.63" departDelay="0.68" arrival="163.00" arrivalLane="48859715#0_1" arrivalPos="18.35" arrivalPosLat="0.00" arrivalSpeed="8.91" duration="32.00" routeLength="272.23" waitingTime="3.00" waitingCount="1" stopTime="0.00" timeLoss="12.01" rerouteNo="1" devices="tripinfo_truck30 routing_truck30" vType="truck_truck" speedFactor="0.98" vaporized=""/>
    <tripinfo id="motorcycle29" depart="126.00" departLane="4611773_0" departPos="2.30" departPosLat="0.00" departSpeed="0.00" departDelay="0.03" arrival="166.00" arrivalLane="-65040946#3_0" arrivalPos="10.30" arrivalPosLat="0.00" arrivalSpeed="7.32" duration="40.00" routeLength="333.92" waitingTime="0.00" waitingCount="0" stopTime="0.00" timeLoss="8.23" rerouteNo="1" devices="tripinfo_motorcycle29 routing_motorcycle29" vType="motorcycle_motorcycle" speedFactor="1.17" vaporized=""/>
    <tripinfo id="truck7" depart="31.00" departLane="-1147413276_0" departPos="7.20" departPosLat="0.00" departSpeed="14.11" departDelay="0.59" arrival="175.00" arrivalLane="-1199889721#0_0" arrivalPos="11.72" arrivalPosLat="0.00" arrivalSpeed="8.30" duration="144.00" routeLength="1212.16" waitingTime="15.00" waitingCount="2" stopTime="0.00" timeLoss="39.16" rerouteNo="1" devices="tripinfo_truck7 routing_truck7" vType="truck_truck" speedFactor="1.02" vaporized=""/>
    <tripinfo id="veh24" depart="70.00" departLane="22972470#2_0" departPos="0.20" departPosLat="0.00" departSpeed="0.00" departDelay="0.50" arrival="176.00" arrivalLane="1124763679#0_0" arrivalPos="0.20" arrivalPosLat="0.00" arrivalSpeed="6.09" duration="106.00" routeLength="957.34" waitingTime="1.00" waitingCount="1" stopTime="0.00" timeLoss="20.61" rerouteNo="1" devices="tripinfo_veh24 routing_veh24" vType="passenger" speedFactor="0.96" vaporized=""/>
    <tripinfo id="truck3" depart="14.00" departLane="-1110748916_0" departPos="0.10" departPosLat="0.00" departSpeed="14.05" departDelay="0.97" arrival="177.00" arrivalLane="-4474915#0_0" arrivalPos="9.72" arrivalPosLat="0.00" arrivalSpeed="2.47" duration="163.00" routeLength="1223.10" waitingTime="0.00" waitingCount="0" stopTime="0.00" timeLoss="16.92" rerouteNo="1" devices="tripinfo_truck3 routing_truck3" vType="truck_truck" speedFactor="1.01" vaporized=""/>
    <tripinfo id="motorcycle1" depart="5.00" departLane="328064919#0_0" departPos="2.30" departPosLat="0.00" departSpeed="13.03" departDelay="0.66" arrival="181.00" arrivalLane="25041996#0_2" arrivalPos="4.24" arrivalPosLat="0.00" arrivalSpeed="5.59" duration="176.00" routeLength="928.57" waitingTime="47.00" waitingCount="3" stopTime="0.00" timeLoss="77.06" rerouteNo="1" devices="tripinfo_motorcycle1 routing_motorcycle1" vType="motorcycle_motorcycle" speedFactor="0.94" vaporized=""/>
    <tripinfo id="bus6" depart="52.00" departLane="-1147413276_0" departPos="12.10" departPosLat="0.00" departSpeed="13.89" departDelay="0.01" arrival="181.00" arrivalLane="-1199889721#0_0" arrivalPos="11.72" arrivalPosLat="0.00" arrivalSpeed="7.85" duration="129.00" routeLength="1207.26" waitingTime="5.00" waitingCount="1" stopTime="0.00" timeLoss="22.88" rerouteNo="1" devices="tripinfo_bus6 routing_bus6" vType="bus_bus" speedFactor="1.00" vaporized=""/>
    <tripinfo id="motorcycle11" depart="51.00" departLane="4396528#3_0" departPos="2.30" departPosLat="0.00" departSpeed="0.00" departDelay="3.22" arrival="182.00" arrivalLane="356359316#2_0" arrivalPos="10.61" arrivalPosLat="0.00" arrivalSpeed="5.94" duration="131.00" routeLength="951.76" waitingTime="0.00" waitingCount="0" stopTime="0.00" timeLoss="23.42" rerouteNo="1" devices="tripinfo_motorcycle11 routing_motorcycle11" vType="motorcycle_motorcycle" speedFactor="0.93" vaporized=""/>
    <tripinfo id="veh44" depart="128.00" departLane="-1151333062_0" departPos="0.20" departPosLat="0.00" departSpeed="0.00" departDelay="0.58" arrival="182.00" arrivalLane="1151333058_0" arrivalPos="0.20" arrivalPosLat="0.00" arrivalSpeed="8.24" duration="54.00" routeLength="418.92" waitingTime="0.00" waitingCount="0" stopTime="0.00" timeLoss="7.13" rerouteNo="1" devices="tripinfo_veh44 routing_veh44" vType="passenger" speedFactor="1.09" vaporized=""/>
    <tripinfo id="motorcycle13" depart="57.00" departLane="-66071387#3_0" departPos="2.30" departPosLat="0.00" departSpeed="0.00" departDelay="0.53" arrival="183.00" arrivalLane="1228558179#1_0" arrivalPos="3.11" arrivalPosLat="0.00" arrivalSpeed="7.77" duration="126.00" routeLength="790.31" waitingTime="0.00" waitingCount="0" stopTime="0.00" timeLoss="24.46" rerouteNo="1" devices="tripinfo_motorcycle13 routing_motorcycle13" vType="motorcycle_motorcycle" speedFactor="0.94" vaporized=""/>
    <tripinfo id="bus1" depart="9.00" departLane="4611774#4_0" departPos="10.38" departPosLat="0.00" departSpeed="0.00" departDelay="0.33" arrival="184.00" arrivalLane="-1152880160#0_0" arrivalPos="0.20" arrivalPosLat="0.00" arrivalSpeed="7.88" duration="175.00" routeLength="1356.72" waitingTime="6.00" waitingCount="1" stopTime="0.00" timeLoss="30.53" rerouteNo="1" devices="tripinfo_bus1 routing_bus1" vType="bus_bus" speedFactor="1.00" vaporized=""/>
    <tripinfo id="veh38" depart="111.00" departLane="-1147413271#1_0" departPos="5.10" departPosLat="0.00" departSpeed="13.99" departDelay="0.95" arrival="184.00" arrivalLane="1132166702#0_0" arrivalPos="0.83" arrivalPosLat="0.00" arrivalSpeed="7.26" duration="73.00" routeLength="633.48" waitingTime="1.00" waitingCount="1" stopTime="0.00" timeLoss="10.55" rerouteNo="1" devices="tripinfo_veh38 routing_veh38" vType="passenger" speedFactor="1.01" vaporized=""/>
    <tripinfo id="veh27" depart="79.00" departLane="-22972469#0_0" departPos="5.10" departPosLat="0.00" departSpeed="0.00" departDelay="0.81" arrival="185.00" arrivalLane="375311153_0" arrivalPos="3.73" arrivalPosLat="0.00" arrivalSpeed="7.84" duration="106.00" routeLength="554.62" waitingTime="23.00" waitingCount="2" stopTime="0.00" timeLoss="36.56" rerouteNo="1" devices="tripinfo_veh27 routing_veh27" vType="passenger" speedFactor="0.98" vaporized=""/>
    <tripinfo id="veh32" depart="93.00" departLane="24214089#1_1" departPos="5.10" departPosLat="0.00" departSpeed="0.00" departDelay="0.33" arrival="188.00" arrivalLane="1147413271#0_0" arrivalPos="11.00" arrivalPosLat="0.00" arrivalSpeed="13.63" duration="95.00" routeLength="739.15" waitingTime="0.00" waitingCount="0" stopTime="0.00" timeLoss="19.25" rerouteNo="1" devices="tripinfo_veh32 routing_veh32" vType="passenger" speedFactor="1.02" vaporized=""/>
    <tripinfo id="veh1" depart="3.00" departLane="-4588222#0_0" departPos="5.10" departPosLat="0.00" departSpeed="0.00" departDelay="0.10" arrival="190.00" arrivalLane="-475533030_0" arrivalPos="11.90" arrivalPosLat="0.00" arrivalSpeed="8.37" duration="187.00" routeLength="1479.85" waitingTime="3.00" waitingCount="2" stopTime="0.00" timeLoss="37.07" rerouteNo="1" devices="tripinfo_veh1 routing_veh1" vType="passenger" speedFactor="1.08" vaporized=""/>
    <tripinfo id="veh2" depart="6.00" departLane="356359316#3_0" departPos="5.10" departPosLat="0.00" departSpeed="0.00" departDelay="0.21" arrival="190.00" arrivalLane="327756248#3_0" arrivalPos="3.60" arrivalPosLat="0.00" arrivalSpeed="8.05" duration="184.00" routeLength="1229.50" waitingTime="16.00" waitingCount="2" stopTime="0.00" timeLoss="38.28" rerouteNo="1" devices="tripinfo_veh2 routing_veh2" vType="passenger" speedFactor="1.02" vaporized=""/>
    <tripinfo id="motorcycle16" depart="70.00" departLane="25042806#2_0" departPos="2.30" departPosLat="0.00" departSpeed="0.00" departDelay="0.50" arrival="192.00" arrivalLane="-1136657266#0_0" arrivalPos="10.34" arrivalPosLat="0.00" arrivalSpeed="6.05" duration="122.00" routeLength="883.64" waitingTime="14.00" waitingCount="2" stopTime="0.00" timeLoss="39.59" rerouteNo="1" devices="tripinfo_motorcycle16 routing_motorcycle16" vType="motorcycle_motorcycle" speedFactor="1.02" vaporized=""/>
    <tripinfo id="motorcycle37" depart="161.00" departLane="-1147413234#2_0" departPos="2.30" departPosLat="0.00" departSpeed="0.00" departDelay="0.27" arrival="193.00" arrivalLane="1057179327#0_0" arrivalPos="5.72" arrivalPosLat="0.00" arrivalSpeed="11.19" duration="32.00" routeLength="166.80" waitingTime="3.00" waitingCount="1" stopTime="0.00" timeLoss="10.85" rerouteNo="1" devices="tripinfo_motorcycle37 routing_motorcycle37" vType="motorcycle_motorcycle" speedFactor="0.96" vaporized=""/>
    <tripinfo id="truck1" depart="5.00" departLane="-375311158#0_0" departPos="4.95" departPosLat="0.00" departSpeed="0.00" departDelay="0.66" arrival="194.00" arrivalLane="-4597322#2_0" arrivalPos="10.32" arrivalPosLat="0.00" arrivalSpeed="7.30" duration="189.00" routeLength="1209.94" waitingTime="13.00" waitingCount="2" stopTime="0.00" timeLoss="36.67" rerouteNo="1" devices="tripinfo_truck1 routing_truck1" vType="truck_truck" speedFactor="0.92" vaporized=""/>
    <tripinfo id="veh4" depart="12.00" departLane="1110759207#0_1" departPos="5.10" departPosLat="0.00" departSpeed="13.93" departDelay="0.42" arrival="194.00" arrivalLane="-1132166349_0" arrivalPos="2.22" arrivalPosLat="0.00" arrivalSpeed="4.66" duration="182.00" routeLength="1296.63" waitingTime="11.00" waitingCount="3" stopTime="0.00" timeLoss="48.93" rerouteNo="1" devices="tripinfo_veh4 routing_veh4" vType="passenger" speedFactor="1.00" vaporized=""/>
    <tripinfo id="motorcycle23" depart="100.00" departLane="884209962#3_0" departPos="0.20" departPosLat="0.00" departSpeed="0.00" departDelay="0.09" arrival="196.00" arrivalLane="23017853_0" arrivalPos="2.07" arrivalPosLat="0.00" arrivalSpeed="5.29" duration="96.00" routeLength="583.98" waitingTime="0.00" waitingCount="0" stopTime="0.00" timeLoss="21.39" rerouteNo="1" devices="tripinfo_motorcycle23 routing_motorcycle23" vType="motorcycle_motorcycle" speedFactor="0.95" vaporized=""/>
    <tripinfo id="motorcycle24" depart="105.00" departLane="11845184#0_1" departPos="2.30" departPosLat="0.00" departSpeed="0.00" departDelay="0.74" arrival="203.00" arrivalLane="28108856#0_0" arrivalPos="15.00" arrivalPosLat="0.00" arrivalSpeed="14.66" duration="98.00" routeLength="859.06" waitingTime="14.00" waitingCount="3" stopTime="0.00" timeLoss="41.08" rerouteNo="1" devices="tripinfo_motorcycle24 routing_motorcycle24" vType="motorcycle_motorcycle" speedFactor="1.13" vaporized=""/>
    <tripinfo id="motorcycle22" depart="96.00" departLane="-168935757#0_0" departPos="2.30" departPosLat="0.00" departSpeed="0.00" departDelay="0.43" arrival="204.00" arrivalLane="1057178318_0" arrivalPos="2.99" arrivalPosLat="0.00" arrivalSpeed="8.77" duration="108.00" routeLength="840.01" waitingTime="5.00" waitingCount="1" stopTime="0.00" timeLoss="28.81" rerouteNo="1" devices="tripinfo_motorcycle22 routing_motorcycle22" vType="motorcycle_motorcycle" speedFactor="0.92" vaporized=""/>
    <tripinfo id="motorcycle41" depart="182.00" departLane="24214089#0_1" departPos="2.30" departPosLat="0.00" departSpeed="0.00" departDelay="3.90" arrival="204.00" arrivalLane="11845212_1" arrivalPos="7.37" arrivalPosLat="0.00" arrivalSpeed="13.77" duration="22.00" routeLength="237.13" waitingTime="0.00" waitingCount="0" stopTime="0.00" timeLoss="5.41" rerouteNo="1" devices="tripinfo_motorcycle41 routing_motorcycle41" vType="motorcycle_motorcycle" speedFactor="1.09" vaporized=""/>
    <tripinfo id="motorcycle9" depart="40.00" departLane="-1151333057#1_0" departPos="2.30" departPosLat="0.00" departSpeed="0.00" departDelay="0.90" arrival="205.00" arrivalLane="-1152876522#1_0" arrivalPos="10.60" arrivalPosLat="0.00" arrivalSpeed="12.94" duration="165.00" routeLength="1101.02" waitingTime="11.00" waitingCount="2" stopTime="0.00" timeLoss="61.64" rerouteNo="1" devices="tripinfo_motorcycle9 routing_motorcycle9" vType="motorcycle_motorcycle" speedFactor="1.12" vaporized=""/>
    <tripinfo id="veh42" depart="122.00" departLane="28108856#0_1" departPos="5.10" departPosLat="0.00" departSpeed="0.00" departDelay="0.37" arrival="206.00" arrivalLane="160971194#1_3" arrivalPos="10.28" arrivalPosLat="0.00" arrivalSpeed="11.03" duration="84.00" routeLength="652.34" waitingTime="10.00" waitingCount="3" stopTime="0.00" timeLoss="25.68" rerouteNo="1" devices="tripinfo_veh42 routing_veh42" vType="passenger" speedFactor="0.83" vaporized=""/>
    <tripinfo id="motorcycle36" depart="157.00" departLane="43376693#0_0" departPos="0.20" departPosLat="0.00" departSpeed="0.00" departDelay="0.62" arrival="210.00" arrivalLane="1123184404#0_1" arrivalPos="8.53" arrivalPosLat="0.00" arrivalSpeed="8.10" duration="53.00" routeLength="304.47" waitingTime="6.00" waitingCount="1" stopTime="0.00" timeLoss="17.52" rerouteNo="1" devices="tripinfo_motorcycle36 routing_motorcycle36" vType="motorcycle_motorcycle" speedFactor="1.03" vaporized=""/>
    <tripinfo id="motorcycle26" depart="113.00" departLane="-327756257#2_0" departPos="1.26" departPosLat="0.00" departSpeed="0.00" departDelay="0.06" arrival="211.00" arrivalLane="-1132164893#0_0" arrivalPos="0.28" arrivalPosLat="0.00" arrivalSpeed="14.50" duration="98.00" routeLength="669.45" waitingTime="14.00" waitingCount="1" stopTime="0.00" timeLoss="30.59" rerouteNo="1" devices="tripinfo_motorcycle26 routing_motorcycle26" vType="motorcycle_motorcycle" speedFactor="1.18" vaporized=""/>
    <tripinfo id="truck0" depart="0.00" departLane="160971191#0_0" departPos="0.20" departPosLat="0.00" departSpeed="0.00" departDelay="0.00" arrival="212.00" arrivalLane="-1132163645#3_0" arrivalPos="4.30" arrivalPosLat="0.00" arrivalSpeed="8.37" duration="212.00" routeLength="1745.30" waitingTime="15.00" waitingCount="2" stopTime="0.00" timeLoss="43.56" rerouteNo="1" devices="tripinfo_truck0 routing_truck0" vType="truck_truck" speedFactor="1.02" vaporized=""/>
    <tripinfo id="motorcycle14" depart="63.00" departLane="4588215#6_0" departPos="2.30" departPosLat="0.00" departSpeed="0.00" departDelay="2.18" arrival="212.00" arrivalLane="199847244#0_0" arrivalPos="0.20" arrivalPosLat="0.00" arrivalSpeed="12.84" duration="149.00" routeLength="931.76" waitingTime="6.00" waitingCount="2" stopTime="0.00" timeLoss="38.69" rerouteNo="1" devices="tripinfo_motorcycle14 routing_motorcycle14" vType="motorcycle_motorcycle" speedFactor="0.94" vaporized=""/>
    <tripinfo id="motorcycle38" depart="166.00" departLane="9657820#0_0" departPos="0.20" departPosLat="0.00" departSpeed="0.00" departDelay="0.93" arrival="212.00" arrivalLane="11845184#0_1" arrivalPos="7.52" arrivalPosLat="0.00" arrivalSpeed="14.87" duration="46.00" routeLength="290.95" waitingTime="12.00" waitingCount="2" stopTime="0.00" timeLoss="22.04" rerouteNo="1" devices="tripinfo_motorcycle38 routing_motorcycle38" vType="motorcycle_motorcycle" speedFactor="1.09" vaporized=""/>
    <tripinfo id="veh12" depart="37.00" departLane="710761406#2_0" departPos="0.20" departPosLat="0.00" departSpeed="0.00" departDelay="2.25" arrival="213.00" arrivalLane="1116508491_0" arrivalPos="1.28" arrivalPosLat="0.00" arrivalSpeed="7.76" duration="176.00" routeLength="1216.33" waitingTime="26.00" waitingCount="2" stopTime="0.00" timeLoss="53.56" rerouteNo="1" devices="tripinfo_veh12 routing_veh12" vType="passenger" speedFactor="1.02" vaporized=""/>
    <tripinfo id="motorcycle33" depart="144.00" departLane="1228562464#1_0" departPos="0.20" departPosLat="0.00" departSpeed="0.00" departDelay="0.65" arrival="217.00" arrivalLane="508410318#0_0" arrivalPos="0.20" arrivalPosLat="0.00" arrivalSpeed="5.75" duration="73.00" routeLength="562.55" waitingTime="1.00" waitingCount="1" stopTime="0.00" timeLoss="14.59" rerouteNo="1" devices="tripinfo_motorcycle33 routing_motorcycle33" vType="motorcycle_motorcycle" speedFactor="1.18" vaporized=""/>
    <tripinfo id="motorcycle34" depart="148.00" departLane="-1151333057#0_0" departPos="2.05" departPosLat="0.00" departSpeed="0.00" departDelay="0.31" arrival="220.00" arrivalLane="-1136657266#1_0" arrivalPos="2.01" arrivalPosLat="0.00" arrivalSpeed="7.71" duration="72.00" routeLength="504.95" waitingTime="0.00" waitingCount="0" stopTime="0.00" timeLoss="14.82" rerouteNo="1" devices="tripinfo_motorcycle34 routing_motorcycle34" vType="motorcycle_motorcycle" speedFactor="1.10" vaporized=""/>