<?xml version="1.0" encoding="UTF-8"?>

<!-- generated on 2025-12-24 21:31:09 by Eclipse SUMO GUI Version 1.23.1
<sumoConfiguration xmlns:xsi="http://www.w3.org/2001/XMLSchema-instance" xsi:noNamespaceSchemaLocation="http://sumo.dlr.de/xsd/sumoConfiguration.xsd">

    <input>
        <net-file value="osm.net.xml.gz"/>
        <route-files value="osm.bus.trips.xml,osm.motorcycle.trips.xml,osm.passenger.trips.xml,osm.truck.trips.xml"/>
        <additional-files value="osm.poly.xml.gz,output.add.xml"/>
    </input>

    <output>
        <tripinfo-output value="tripinfos.xml"/>
        <statistic-output value="stats.xml"/>
    </output>

    <processing>
        <ignore-route-errors value="true"/>
        <tls.actuated.jam-threshold value="30"/>
    </processing>

    <routing>
        <device.rerouting.adaptation-steps value="18"/>
        <device.rerouting.adaptation-interval value="10"/>
    </routing>

    <report>
        <verbose value="true"/>
        <duration-log.statistics value="true"/>
        <no-step-log value="true"/>
    </report>

    <gui_only>
        <gui-settings-file value="osm.view.xml"/>
    </gui_only>

</sumoConfiguration>
-->

<meandata xmlns:xsi="http://www.w3.org/2001/XMLSchema-instance" xsi:noNamespaceSchemaLocation="http://sumo.dlr.de/xsd/meandata_file.xsd">
    <interval begin="0.00" end="156.00" id="wizard_example">
        <edge id="-1006033769" sampledSeconds="3.72" traveltime="4.38" overlapTraveltime="4.80" density="1.35" laneDensity="1.35" occupancy="0.62" waitingTime="0.00" timeLoss="1.68" speed="4.72" speedRelative="0.57" departed="1" arrived="0" entered="0" left="1" laneChangedFrom="0" laneChangedTo="0"/>
        <edge id="-1040630268#1" sampledSeconds="2.73" traveltime="2.44" overlapTraveltime="2.73" density="0.91" laneDensity="0.91" occupancy="0.18" waitingTime="0.00" timeLoss="0.21" speed="7.84" speedRelative="0.94" departed="0" arrived="0" entered="1" left="1" laneChangedFrom="0" laneChangedTo="0"/>
        <edge id="-1040630268#2" sampledSeconds="3.43" traveltime="3.06" overlapTraveltime="3.43" density="1.13" laneDensity="1.13" occupancy="0.23" waitingTime="0.00" timeLoss="0.87" speed="6.31" speedRelative="0.76" departed="0" arrived="0" entered="1" left="1" laneChangedFrom="0" laneChangedTo="0"/>
        <edge id="-1040630268#3" sampledSeconds="3.92" traveltime="3.66" overlapTraveltime="3.92" density="0.96" laneDensity="0.96" occupancy="0.19" waitingTime="0.00" timeLoss="0.59" speed="7.20" speedRelative="0.86" departed="0" arrived="0" entered="1" left="1" laneChangedFrom="0" laneChangedTo="0"/>
        <edge id="-1055302850#0" sampledSeconds="30.15" traveltime="5.28" overlapTraveltime="5.92" density="3.39" laneDensity="3.39" occupancy="2.38" waitingTime="0.00" timeLoss="6.38" speed="11.05" speedRelative="0.80" departed="0" arrived="0" entered="6" left="5" laneChangedFrom="0" laneChangedTo="0"/>
        <edge id="-1055302850#1" sampledSeconds="6.36" traveltime="0.15" overlapTraveltime="1.29" density="37.77" laneDensity="37.77" occupancy="3.52" waitingTime="0.00" timeLoss="2.84" speed="7.71" speedRelative="0.56" departed="0" arrived="0" entered="6" left="6" laneChangedFrom="0" laneChangedTo="0"/>
        <edge id="-1055304388" sampledSeconds="46.45" traveltime="7.26" overlapTraveltime="7.98" density="3.95" laneDensity="3.95" occupancy="3.35" waitingTime="0.00" timeLoss="11.29" speed="10.60" speedRelative="0.76" departed="1" arrived="0" entered="5" left="6" laneChangedFrom="0" laneChangedTo="0"/>
        <edge id="-1055409898#1" sampledSeconds="13.15" traveltime="6.20" overlapTraveltime="7.92" density="3.17" laneDensity="3.17" occupancy="1.49" waitingTime="0.00" timeLoss="5.79" speed="4.03" speedRelative="0.48" departed="2" arrived="0" entered="0" left="2" laneChangedFrom="0" laneChangedTo="0"/>
        <edge id="-1055409898#2" sampledSeconds="0.00" departed="0" arrived="0" entered="0" left="0" laneChangedFrom="0" laneChangedTo="0"/>
        <edge id="-1055411232#0" sampledSeconds="0.00" departed="0" arrived="0" entered="0" left="0" laneChangedFrom="0" laneChangedTo="0"/>
        <edge id="-1055411345" sampledSeconds="0.00" departed="0" arrived="0" entered="0" left="0" laneChangedFrom="0" laneChangedTo="0"/>
        <edge id="-1055411346#0" sampledSeconds="0.00" departed="0" arrived="0" entered="0" left="0" laneChangedFrom="0" laneChangedTo="0"/>
        <edge id="-1055411346#2" sampledSeconds="0.00" departed="0" arrived="0" entered="0" left="0" laneChangedFrom="0" laneChangedTo="0"/>
        <edge id="-1055411346#3" sampledSeconds="0.00" departed="0" arrived="0" entered="0" left="0" laneChangedFrom="0" laneChangedTo="0"/>
        <edge id="-1055411348#0" sampledSeconds="0.00" departed="0" arrived="0" entered="0" left="0" laneChangedFrom="0" laneChangedTo="0"/>
        <edge id="-1055411348#1" sampledSeconds="0.00" departed="0" arrived="0" entered="0" left="0" laneChangedFrom="0" laneChangedTo="0"/>
        <edge id="-1055411348#2" sampledSeconds="0.00" departed="0" arrived="0" entered="0" left="0" laneChangedFrom="0" laneChangedTo="0"/>
        <edge id="-1055411426#0" sampledSeconds="0.00" departed="0" arrived="0" entered="0" left="0" laneChangedFrom="0" laneChangedTo="0"/>
        <edge id="-1055411426#1" sampledSeconds="0.00" departed="0" arrived="0" entered="0" left="0" laneChangedFrom="0" laneChangedTo="0"/>
        <edge id="-1055411427" sampledSeconds="0.00" departed="0" arrived="0" entered="0" left="0" laneChangedFrom="0" laneChangedTo="0"/>
        <edge id="-1055413190" sampledSeconds="0.00" departed="0" arrived="0" entered="0" left="0" laneChangedFrom="0" laneChangedTo="0"/>
        <edge id="-1055413926" sampledSeconds="0.00" departed="0" arrived="0" entered="0" left="0" laneChangedFrom="0" laneChangedTo="0"/>
        <edge id="-1055413927" sampledSeconds="0.00" departed="0" arrived="0" entered="0" left="0" laneChangedFrom="0" laneChangedTo="0"/>
        <edge id="-1055414211#0" sampledSeconds="2.30" traveltime="0.53" overlapTraveltime="1.15" density="3.29" laneDensity="3.29" occupancy="0.79" waitingTime="0.00" timeLoss="0.21" speed="8.24" speedRelative="0.99" departed="0" arrived="0" entered="2" left="2" laneChangedFrom="0" laneChangedTo="0"/>
        <edge id="-1055414211#1" sampledSeconds="20.65" traveltime="9.73" overlapTraveltime="10.33" density="1.64" laneDensity="1.64" occupancy="0.77" waitingTime="0.00" timeLoss="1.77" speed="8.31" speedRelative="1.00" departed="0" arrived="0" entered="2" left="2" laneChangedFrom="0" laneChangedTo="0"/>
        <edge id="-1055414211#2" sampledSeconds="3.92" traveltime="4.53" overlapTraveltime="5.04" density="1.40" laneDensity="1.40" occupancy="0.64" waitingTime="0.00" timeLoss="1.83" speed="4.55" speedRelative="0.55" departed="1" arrived="0" entered="0" left="1" laneChangedFrom="0" laneChangedTo="0"/>
        <edge id="-1055414262" sampledSeconds="20.82" traveltime="3.65" overlapTraveltime="4.36" density="4.40" laneDensity="4.40" occupancy="2.17" waitingTime="0.00" timeLoss="1.39" speed="8.28" speedRelative="0.99" departed="0" arrived="0" entered="5" left="4" laneChangedFrom="0" laneChangedTo="0"/>
        <edge id="-1055414848#0" sampledSeconds="0.00" departed="0" arrived="0" entered="0" left="0" laneChangedFrom="0" laneChangedTo="0"/>
        <edge id="-1055415440" sampledSeconds="0.00" departed="0" arrived="0" entered="0" left="0" laneChangedFrom="0" laneChangedTo="0"/>
        <edge id="-1055415441" sampledSeconds="0.00" departed="0" arrived="0" entered="0" left="0" laneChangedFrom="0" laneChangedTo="0"/>
        <edge id="-105593532#0" sampledSeconds="0.00" departed="0" arrived="0" entered="0" left="0" laneChangedFrom="0" laneChangedTo="0"/>
        <edge id="-105593532#1" sampledSeconds="0.00" departed="0" arrived="0" entered="0" left="0" laneChangedFrom="0" laneChangedTo="0"/>
        <edge id="-1066883733#1" sampledSeconds="0.00" departed="0" arrived="0" entered="0" left="0" laneChangedFrom="0" laneChangedTo="0"/>
        <edge id="-1083617992#1" sampledSeconds="27.17" traveltime="1.41" overlapTraveltime="2.34" density="19.04" laneDensity="19.04" occupancy="7.10" waitingTime="0.00" timeLoss="5.97" speed="6.94" speedRelative="0.83" departed="0" arrived="0" entered="12" left="12" laneChangedFrom="0" laneChangedTo="0"/>
        <edge id="-1083617992#2" sampledSeconds="55.00" traveltime="3.41" overlapTraveltime="4.39" density="14.45" laneDensity="14.45" occupancy="7.14" waitingTime="0.00" timeLoss="8.91" speed="7.06" speedRelative="0.85" departed="0" arrived="0" entered="13" left="12" laneChangedFrom="0" laneChangedTo="0"/>
        <edge id="-1083617992#3" sampledSeconds="17.12" traveltime="0.50" overlapTraveltime="1.52" density="32.67" laneDensity="32.67" occupancy="7.11" waitingTime="0.00" timeLoss="2.63" speed="7.15" speedRelative="0.86" departed="1" arrived="0" entered="12" left="13" laneChangedFrom="0" laneChangedTo="0"/>
        <edge id="-1083617992#4" sampledSeconds="12.65" traveltime="0.03" overlapTraveltime="1.30" density="212.77" laneDensity="212.77" occupancy="7.91" waitingTime="0.00" timeLoss="3.05" speed="6.41" speedRelative="0.77" departed="1" arrived="0" entered="11" left="12" laneChangedFrom="0" laneChangedTo="0"/>
        <edge id="-1083617993#0" sampledSeconds="0.00" departed="0" arrived="0" entered="0" left="0" laneChangedFrom="0" laneChangedTo="0"/>
        <edge id="-1095365673" sampledSeconds="0.00" departed="0" arrived="0" entered="0" left="0" laneChangedFrom="0" laneChangedTo="0"/>
        <edge id="-1095365674" sampledSeconds="0.00" departed="0" arrived="0" entered="0" left="0" laneChangedFrom="0" laneChangedTo="0"/>
        <edge id="-1095365675#0" sampledSeconds="50.23" traveltime="3.44" overlapTraveltime="4.34" density="11.70" laneDensity="11.70" occupancy="6.48" waitingTime="0.00" timeLoss="3.14" speed="8.01" speedRelative="0.96" departed="0" arrived="0" entered="12" left="12" laneChangedFrom="0" laneChangedTo="0"/>
        <edge id="-1095365675#1" sampledSeconds="19.02" traveltime="0.70" overlapTraveltime="1.72" density="23.82" laneDensity="23.82" occupancy="6.92" waitingTime="0.00" timeLoss="1.85" speed="7.65" speedRelative="0.92" departed="0" arrived="0" entered="13" left="12" laneChangedFrom="0" laneChangedTo="0"/>
        <edge id="-1095365675#2" sampledSeconds="12.92" traveltime="0.03" overlapTraveltime="1.25" density="212.77" laneDensity="212.77" occupancy="8.08" waitingTime="0.00" timeLoss="2.08" speed="7.03" speedRelative="0.84" departed="1" arrived="0" entered="12" left="13" laneChangedFrom="0" laneChangedTo="0"/>
        <edge id="-1095365676" sampledSeconds="0.00" departed="0" arrived="0" entered="0" left="0" laneChangedFrom="0" laneChangedTo="0"/>
        <edge id="-1095365678" sampledSeconds="0.00" departed="0" arrived="0" entered="0" left="0" laneChangedFrom="0" laneChangedTo="0"/>
        <edge id="-1095365679" sampledSeconds="0.00" departed="0" arrived="0" entered="0" left="0" laneChangedFrom="0" laneChangedTo="0"/>
        <edge id="-1095365680" sampledSeconds="0.00" departed="0" arrived="0" entered="0" left="0" laneChangedFrom="0" laneChangedTo="0"/>
        <edge id="-1095365681" sampledSeconds="0.00" departed="0" arrived="0" entered="0" left="0" laneChangedFrom="0" laneChangedTo="0"/>
        <edge id="-1095365682" sampledSeconds="0.00" departed="0" arrived="0" entered="0" left="0" laneChangedFrom="0" laneChangedTo="0"/>
        <edge id="-1095365683" sampledSeconds="0.00" departed="0" arrived="0" entered="0" left="0" laneChangedFrom="0" laneChangedTo="0"/>
        <edge id="-1095365684" sampledSeconds="0.00" departed="0" arrived="0" entered="0" left="0" laneChangedFrom="0" laneChangedTo="0"/>
        <edge id="-1095371162#0" sampledSeconds="0.00" departed="0" arrived="0" entered="0" left="0" laneChangedFrom="0" laneChangedTo="0"/>
        <edge id="-1095371162#1" sampledSeconds="0.00" departed="0" arrived="0" entered="0" left="0" laneChangedFrom="0" laneChangedTo="0"/>
        <edge id="-1095407470#0" sampledSeconds="0.00" departed="0" arrived="0" entered="0" left="0" laneChangedFrom="0" laneChangedTo="0"/>
        <edge id="-1095407470#1" sampledSeconds="0.00" departed="0" arrived="0" entered="0" left="0" laneChangedFrom="0" laneChangedTo="0"/>
        <edge id="-1095407471#0" sampledSeconds="0.00" departed="0" arrived="0" entered="0" left="0" laneChangedFrom="0" laneChangedTo="0"/>
        <edge id="-1095407471#1" sampledSeconds="0.00" departed="0" arrived="0" entered="0" left="0" laneChangedFrom="0" laneChangedTo="0"/>
        <edge id="-1096709562#0" sampledSeconds="59.18" traveltime="6.03" overlapTraveltime="6.58" density="4.84" laneDensity="4.84" occupancy="3.16" waitingTime="0.00" timeLoss="3.75" speed="13.00" speedRelative="0.94" departed="0" arrived="0" entered="9" left="9" laneChangedFrom="0" laneChangedTo="0"/>
        <edge id="-1096709563" sampledSeconds="50.59" traveltime="5.07" overlapTraveltime="5.63" density="4.90" laneDensity="4.90" occupancy="3.15" waitingTime="0.00" timeLoss="3.06" speed="13.04" speedRelative="0.94" departed="0" arrived="0" entered="9" left="9" laneChangedFrom="0" laneChangedTo="0"/>
        <edge id="-109819340" sampledSeconds="0.00" departed="0" arrived="0" entered="0" left="0" laneChangedFrom="0" laneChangedTo="0"/>
        <edge id="-110131897" sampledSeconds="12.42" traveltime="1.96" overlapTraveltime="4.14" density="7.97" laneDensity="7.97" occupancy="4.49" waitingTime="0.00" timeLoss="6.25" speed="5.31" speedRelative="0.38" departed="0" arrived="0" entered="3" left="3" laneChangedFrom="0" laneChangedTo="0"/>
        <edge id="-1101331451" sampledSeconds="4.87" traveltime="1.91" overlapTraveltime="4.87" density="3.16" laneDensity="3.16" occupancy="1.86" waitingTime="0.00" timeLoss="1.29" speed="4.49" speedRelative="0.54" departed="0" arrived="0" entered="1" left="1" laneChangedFrom="0" laneChangedTo="0"/>
        <edge id="-1101404244#0" sampledSeconds="0.00" departed="0" arrived="0" entered="0" left="0" laneChangedFrom="0" laneChangedTo="0"/>
        <edge id="-110464118#0" sampledSeconds="0.00" departed="0" arrived="0" entered="0" left="0" laneChangedFrom="0" laneChangedTo="0"/>
        <edge id="-110464118#1" sampledSeconds="0.00" departed="0" arrived="0" entered="0" left="0" laneChangedFrom="0" laneChangedTo="0"/>
        <edge id="-110464119#1" sampledSeconds="7.28" traveltime="7.44" overlapTraveltime="8.09" density="1.02" laneDensity="1.02" occupancy="0.49" waitingTime="0.00" timeLoss="1.90" speed="6.26" speedRelative="0.75" departed="1" arrived="0" entered="0" left="1" laneChangedFrom="0" laneChangedTo="0"/>
        <edge id="-110464119#2" sampledSeconds="0.00" departed="0" arrived="0" entered="0" left="0" laneChangedFrom="0" laneChangedTo="0"/>
        <edge id="-1105526111#1" sampledSeconds="15.61" traveltime="2.02" overlapTraveltime="3.25" density="6.70" laneDensity="6.70" occupancy="2.87" waitingTime="0.00" timeLoss="2.82" speed="6.65" speedRelative="0.80" departed="0" arrived="0" entered="6" left="5" laneChangedFrom="0" laneChangedTo="0"/>
        <edge id="-1107944181#0" sampledSeconds="0.00" departed="0" arrived="0" entered="0" left="0" laneChangedFrom="0" laneChangedTo="0"/>
        <edge id="-1107944181#1" sampledSeconds="0.00" departed="0" arrived="0" entered="0" left="0" laneChangedFrom="0" laneChangedTo="0"/>
        <edge id="-1107944182#0" sampledSeconds="0.00" departed="0" arrived="0" entered="0" left="0" laneChangedFrom="0" laneChangedTo="0"/>
        <edge id="-1107944182#1" sampledSeconds="0.00" departed="0" arrived="0" entered="0" left="0" laneChangedFrom="0" laneChangedTo="0"/>
        <edge id="-1107944738" sampledSeconds="0.00" departed="0" arrived="0" entered="0" left="0" laneChangedFrom="0" laneChangedTo="0"/>
        <edge id="-1107953479" sampledSeconds="40.72" traveltime="2.89" overlapTraveltime="3.94" density="12.36" laneDensity="12.36" occupancy="6.93" waitingTime="0.00" timeLoss="5.31" speed="7.41" speedRelative="0.89" departed="0" arrived="0" entered="11" left="10" laneChangedFrom="0" laneChangedTo="0"/>
        <edge id="-1107953481" sampledSeconds="0.00" departed="0" arrived="0" entered="0" left="0" laneChangedFrom="0" laneChangedTo="0"/>
        <edge id="-1107953482" sampledSeconds="41.39" traveltime="3.99" overlapTraveltime="5.01" density="10.59" laneDensity="10.59" occupancy="7.23" waitingTime="0.00" timeLoss="9.29" speed="6.63" speedRelative="0.80" departed="11" arrived="0" entered="0" left="11" laneChangedFrom="0" laneChangedTo="0"/>
        <edge id="-1107953489" sampledSeconds="21.91" traveltime="6.50" overlapTraveltime="7.78" density="4.15" laneDensity="4.15" occupancy="2.70" waitingTime="0.00" timeLoss="7.14" speed="5.41" speedRelative="0.65" departed="1" arrived="0" entered="2" left="3" laneChangedFrom="0" laneChangedTo="0"/>
        <edge id="-111251391#1" sampledSeconds="90.81" traveltime="7.11" overlapTraveltime="8.62" density="28.92" laneDensity="14.46" occupancy="9.54" waitingTime="37.00" timeLoss="68.82" speed="3.21" speedRelative="0.23" departed="0" arrived="0" entered="11" left="10" laneChangedFrom="0" laneChangedTo="0"/>
        <edge id="-1117621325" sampledSeconds="0.00" departed="0" arrived="0" entered="0" left="0" laneChangedFrom="0" laneChangedTo="0"/>
        <edge id="-1117621336#0" sampledSeconds="0.00" departed="0" arrived="0" entered="0" left="0" laneChangedFrom="0" laneChangedTo="0"/>
        <edge id="-1117621336#1" sampledSeconds="0.00" departed="0" arrived="0" entered="0" left="0" laneChangedFrom="0" laneChangedTo="0"/>
        <edge id="-1117621337#0" sampledSeconds="0.00" departed="0" arrived="0" entered="0" left="0" laneChangedFrom="0" laneChangedTo="0"/>
        <edge id="-1117621337#1" sampledSeconds="0.00" departed="0" arrived="0" entered="0" left="0" laneChangedFrom="0" laneChangedTo="0"/>
        <edge id="-112128416" sampledSeconds="0.00" departed="0" arrived="0" entered="0" left="0" laneChangedFrom="0" laneChangedTo="0"/>
        <edge id="-1128235626#0" sampledSeconds="0.00" departed="0" arrived="0" entered="0" left="0" laneChangedFrom="0" laneChangedTo="0"/>
        <edge id="-1128235627#0" sampledSeconds="0.00" departed="0" arrived="0" entered="0" left="0" laneChangedFrom="0" laneChangedTo="0"/>
        <edge id="-1128235627#1" sampledSeconds="0.00" departed="0" arrived="0" entered="0" left="0" laneChangedFrom="0" laneChangedTo="0"/>
        <edge id="-1128235628#0" sampledSeconds="0.00" departed="0" arrived="0" entered="0" left="0" laneChangedFrom="0" laneChangedTo="0"/>
        <edge id="-1128235628#1" sampledSeconds="0.00" departed="0" arrived="0" entered="0" left="0" laneChangedFrom="0" laneChangedTo="0"/>
        <edge id="-1128235629#0" sampledSeconds="0.00" departed="0" arrived="0" entered="0" left="0" laneChangedFrom="0" laneChangedTo="0"/>
        <edge id="-1128235629#1" sampledSeconds="0.00" departed="0" arrived="0" entered="0" left="0" laneChangedFrom="0" laneChangedTo="0"/>
        <edge id="-1133761630#0" sampledSeconds="2.63" traveltime="2.24" overlapTraveltime="2.63" density="9.93" laneDensity="9.93" occupancy="0.71" waitingTime="1.00" timeLoss="2.03" speed="1.48" speedRelative="0.18" departed="0" arrived="0" entered="1" left="1" laneChangedFrom="0" laneChangedTo="0"/>
        <edge id="-1134065346" sampledSeconds="0.00" departed="0" arrived="0" entered="0" left="0" laneChangedFrom="0" laneChangedTo="0"/>
        <edge id="-1134084243#0" sampledSeconds="0.00" departed="0" arrived="0" entered="0" left="0" laneChangedFrom="0" laneChangedTo="0"/>
        <edge id="-1134084243#1" sampledSeconds="0.00" departed="0" arrived="0" entered="0" left="0" laneChangedFrom="0" laneChangedTo="0"/>
        <edge id="-1134084244#0" sampledSeconds="0.00" departed="0" arrived="0" entered="0" left="0" laneChangedFrom="0" laneChangedTo="0"/>
        <edge id="-1134090050" sampledSeconds="23.58" traveltime="1.45" overlapTraveltime="2.25" density="12.33" laneDensity="6.16" occupancy="2.93" waitingTime="0.00" timeLoss="8.57" speed="8.84" speedRelative="0.64" departed="2" arrived="0" entered="9" left="11" laneChangedFrom="0" laneChangedTo="0"/>
        <edge id="-1138696720#0" sampledSeconds="4.01" traveltime="6.19" overlapTraveltime="6.84" density="2.49" laneDensity="2.49" occupancy="1.33" waitingTime="0.00" timeLoss="2.83" speed="2.55" speedRelative="0.31" departed="1" arrived="0" entered="0" left="1" laneChangedFrom="0" laneChangedTo="0"/>
        <edge id="-1138696720#2" sampledSeconds="0.00" departed="0" arrived="0" entered="0" left="0" laneChangedFrom="0" laneChangedTo="0"/>
        <edge id="-1139684195#0" sampledSeconds="0.00" departed="0" arrived="0" entered="0" left="0" laneChangedFrom="0" laneChangedTo="0"/>
        <edge id="-1139684195#1" sampledSeconds="0.00" departed="0" arrived="0" entered="0" left="0" laneChangedFrom="0" laneChangedTo="0"/>
        <edge id="-1139684196#0" sampledSeconds="0.00" departed="0" arrived="0" entered="0" left="0" laneChangedFrom="0" laneChangedTo="0"/>
        <edge id="-1139684196#1" sampledSeconds="0.00" departed="0" arrived="0" entered="0" left="0" laneChangedFrom="0" laneChangedTo="0"/>
        <edge id="-1139684197" sampledSeconds="0.00" departed="0" arrived="0" entered="0" left="0" laneChangedFrom="0" laneChangedTo="0"/>
        <edge id="-1139684198#0" sampledSeconds="0.00" departed="0" arrived="0" entered="0" left="0" laneChangedFrom="0" laneChangedTo="0"/>
        <edge id="-1139684198#1" sampledSeconds="0.00" departed="0" arrived="0" entered="0" left="0" laneChangedFrom="0" laneChangedTo="0"/>
        <edge id="-1139684199#0" sampledSeconds="0.00" departed="0" arrived="0" entered="0" left="0" laneChangedFrom="0" laneChangedTo="0"/>
        <edge id="-1139684200#0" sampledSeconds="0.00" departed="0" arrived="0" entered="0" left="0" laneChangedFrom="0" laneChangedTo="0"/>
        <edge id="-1139684200#1" sampledSeconds="0.00" departed="0" arrived="0" entered="0" left="0" laneChangedFrom="0" laneChangedTo="0"/>
        <edge id="-1139684201#0" sampledSeconds="0.00" departed="0" arrived="0" entered="0" left="0" laneChangedFrom="0" laneChangedTo="0"/>
        <edge id="-1139684201#1" sampledSeconds="0.00" departed="0" arrived="0" entered="0" left="0" laneChangedFrom="0" laneChangedTo="0"/>
        <edge id="-1140689512#0" sampledSeconds="0.00" departed="0" arrived="0" entered="0" left="0" laneChangedFrom="0" laneChangedTo="0"/>
        <edge id="-1140689512#1" sampledSeconds="0.00" departed="0" arrived="0" entered="0" left="0" laneChangedFrom="0" laneChangedTo="0"/>
        <edge id="-1143853298#0" sampledSeconds="0.00" departed="0" arrived="0" entered="0" left="0" laneChangedFrom="0" laneChangedTo="0"/>
        <edge id="-1143853299#0" sampledSeconds="0.00" departed="0" arrived="0" entered="0" left="0" laneChangedFrom="0" laneChangedTo="0"/>
        <edge id="-1143853299#1" sampledSeconds="0.00" departed="0" arrived="0" entered="0" left="0" laneChangedFrom="0" laneChangedTo="0"/>
        <edge id="-1143853305#0" sampledSeconds="0.00" departed="0" arrived="0" entered="0" left="0" laneChangedFrom="0" laneChangedTo="0"/>
        <edge id="-1143853305#1" sampledSeconds="0.00" departed="0" arrived="0" entered="0" left="0" laneChangedFrom="0" laneChangedTo="0"/>
        <edge id="-1144528527" sampledSeconds="0.00" departed="0" arrived="0" entered="0" left="0" laneChangedFrom="0" laneChangedTo="0"/>
        <edge id="-1144528529#1" sampledSeconds="3.32" traveltime="0.16" overlapTraveltime="0.84" density="16.63" laneDensity="16.63" occupancy="1.73" waitingTime="0.00" timeLoss="0.28" speed="8.20" speedRelative="0.98" departed="0" arrived="0" entered="4" left="4" laneChangedFrom="0" laneChangedTo="0"/>
        <edge id="-1144528534#0" sampledSeconds="1.35" traveltime="1.07" overlapTraveltime="1.35" density="1.41" laneDensity="1.41" occupancy="0.23" waitingTime="0.00" timeLoss="0.36" speed="6.19" speedRelative="0.74" departed="0" arrived="0" entered="1" left="1" laneChangedFrom="0" laneChangedTo="0"/>
        <edge id="-1144528535#0" sampledSeconds="0.63" overlapTraveltime="0.87" density="4.86" laneDensity="4.86" occupancy="0.33" waitingTime="0.00" timeLoss="0.37" speed="3.50" speedRelative="0.42" departed="1" arrived="0" entered="0" left="1" laneChangedFrom="0" laneChangedTo="0"/>
        <edge id="-1144528536" sampledSeconds="5.85" traveltime="5.53" overlapTraveltime="5.85" density="0.92" laneDensity="0.92" occupancy="0.19" waitingTime="0.00" timeLoss="0.80" speed="7.32" speedRelative="0.88" departed="0" arrived="0" entered="1" left="1" laneChangedFrom="0" laneChangedTo="0"/>
        <edge id="-1144528537#0" sampledSeconds="1.52" traveltime="0.85" overlapTraveltime="1.52" density="2.10" laneDensity="2.10" occupancy="0.31" waitingTime="0.00" timeLoss="0.28" speed="4.49" speedRelative="0.54" departed="0" arrived="0" entered="1" left="1" laneChangedFrom="0" laneChangedTo="0"/>
        <edge id="-1144528539#0" sampledSeconds="0.00" departed="0" arrived="0" entered="0" left="0" laneChangedFrom="0" laneChangedTo="0"/>
        <edge id="-1144528539#1" sampledSeconds="0.00" departed="0" arrived="0" entered="0" left="0" laneChangedFrom="0" laneChangedTo="0"/>
        <edge id="-1152640371#0" sampledSeconds="1.51" overlapTraveltime="2.82" density="2.21" laneDensity="2.21" occupancy="0.63" waitingTime="0.00" timeLoss="0.84" speed="3.32" speedRelative="0.40" departed="1" arrived="0" entered="0" left="1" laneChangedFrom="0" laneChangedTo="0"/>
        <edge id="-1152689710" sampledSeconds="0.43" traveltime="0.06" overlapTraveltime="0.62" density="5.14" laneDensity="5.14" occupancy="0.26" waitingTime="0.00" timeLoss="0.03" speed="8.97" speedRelative="1.08" departed="0" arrived="1" entered="1" left="0" laneChangedFrom="0" laneChangedTo="0"/>
        <edge id="-1157005903#0" sampledSeconds="0.00" departed="0" arrived="0" entered="0" left="0" laneChangedFrom="0" laneChangedTo="0"/>
        <edge id="-1157005903#1" sampledSeconds="0.00" departed="0" arrived="0" entered="0" left="0" laneChangedFrom="0" laneChangedTo="0"/>
        <edge id="-1157005903#2" sampledSeconds="0.00" departed="0" arrived="0" entered="0" left="0" laneChangedFrom="0" laneChangedTo="0"/>
        <edge id="-1157005904#0" sampledSeconds="0.00" departed="0" arrived="0" entered="0" left="0" laneChangedFrom="0" laneChangedTo="0"/>
        <edge id="-1157005904#1" sampledSeconds="0.00" departed="0" arrived="0" entered="0" left="0" laneChangedFrom="0" laneChangedTo="0"/>
        <edge id="-1157005905#0" sampledSeconds="0.00" departed="0" arrived="0" entered="0" left="0" laneChangedFrom="0" laneChangedTo="0"/>
        <edge id="-1157005905#1" sampledSeconds="0.00" departed="0" arrived="0" entered="0" left="0" laneChangedFrom="0" laneChangedTo="0"/>
        <edge id="-1157005906#0" sampledSeconds="0.00" departed="0" arrived="0" entered="0" left="0" laneChangedFrom="0" laneChangedTo="0"/>
        <edge id="-1157005906#1" sampledSeconds="0.00" departed="0" arrived="0" entered="0" left="0" laneChangedFrom="0" laneChangedTo="0"/>
        <edge id="-1157170982#0" sampledSeconds="0.00" departed="0" arrived="0" entered="0" left="0" laneChangedFrom="0" laneChangedTo="0"/>
        <edge id="-1157170982#1" sampledSeconds="0.00" departed="0" arrived="0" entered="0" left="0" laneChangedFrom="0" laneChangedTo="0"/>
        <edge id="-1169708028" sampledSeconds="0.00" departed="0" arrived="0" entered="0" left="0" laneChangedFrom="0" laneChangedTo="0"/>
        <edge id="-1172748688" sampledSeconds="0.00" departed="0" arrived="0" entered="0" left="0" laneChangedFrom="0" laneChangedTo="0"/>
        <edge id="-1192680923" sampledSeconds="0.00" departed="0" arrived="0" entered="0" left="0" laneChangedFrom="0" laneChangedTo="0"/>
        <edge id="-1200482265" sampledSeconds="0.00" departed="0" arrived="0" entered="0" left="0" laneChangedFrom="0" laneChangedTo="0"/>
        <edge id="-1208760019" sampledSeconds="0.00" departed="0" arrived="0" entered="0" left="0" laneChangedFrom="0" laneChangedTo="0"/>
        <edge id="-1208760020" sampledSeconds="0.00" departed="0" arrived="0" entered="0" left="0" laneChangedFrom="0" laneChangedTo="0"/>
        <edge id="-1208760021" sampledSeconds="0.00" departed="0" arrived="0" entered="0" left="0" laneChangedFrom="0" laneChangedTo="0"/>
        <edge id="-1235510847#0" sampledSeconds="0.00" departed="0" arrived="0" entered="0" left="0" laneChangedFrom="0" laneChangedTo="0"/>
        <edge id="-1235510847#1" sampledSeconds="0.00" departed="0" arrived="0" entered="0" left="0" laneChangedFrom="0" laneChangedTo="0"/>
        <edge id="-1235510847#2" sampledSeconds="0.00" departed="0" arrived="0" entered="0" left="0" laneChangedFrom="0" laneChangedTo="0"/>
        <edge id="-1323456348#1" sampledSeconds="2.33" traveltime="1.98" overlapTraveltime="2.33" density="1.14" laneDensity="1.14" occupancy="0.21" waitingTime="0.00" timeLoss="0.38" speed="6.56" speedRelative="0.79" departed="0" arrived="0" entered="1" left="1" laneChangedFrom="0" laneChangedTo="0"/>
        <edge id="-1323456348#2" sampledSeconds="0.31" traveltime="0.03" overlapTraveltime="0.31" density="9.84" laneDensity="9.84" occupancy="0.18" waitingTime="0.00" timeLoss="0.00" speed="7.81" speedRelative="0.94" departed="0" arrived="0" entered="1" left="1" laneChangedFrom="0" laneChangedTo="0"/>
        <edge id="-1323456348#3" sampledSeconds="2.13" traveltime="1.79" overlapTraveltime="2.13" density="1.13" laneDensity="1.13" occupancy="0.21" waitingTime="0.00" timeLoss="0.31" speed="6.70" speedRelative="0.80" departed="0" arrived="0" entered="1" left="1" laneChangedFrom="0" laneChangedTo="0"/>